<?xml version="1.0" encoding="UTF-8"?>

<!-- generated on Thu Dec 22 17:33:38 2022 by Eclipse SUMO sumo Version 1.8.0
<configuration xmlns:xsi="http://www.w3.org/2001/XMLSchema-instance" xsi:noNamespaceSchemaLocation="http://sumo.dlr.de/xsd/sumoConfiguration.xsd">

    <input>
        <net-file value="osm.net.xml"/>
        <route-files value="osm.rou.xml,peds.rou.xml"/>
        <additional-files value="osm.poly.xml"/>
    </input>

    <output>
        <vehroute-output value="AreaP_vehroute_out.xml"/>
    </output>

    <processing>
        <ignore-route-errors value="true"/>
    </processing>

    <routing>
        <device.rerouting.adaptation-steps value="18"/>
        <device.rerouting.adaptation-interval value="10"/>
    </routing>

    <report>
        <verbose value="true"/>
        <duration-log.statistics value="true"/>
        <no-step-log value="true"/>
    </report>

    <gui_only>
        <gui-settings-file value="osm.view.xml"/>
    </gui_only>

</configuration>
-->

<routes xmlns:xsi="http://www.w3.org/2001/XMLSchema-instance" xsi:noNamespaceSchemaLocation="http://sumo.dlr.de/xsd/routes_file.xsd">
    <person id="25" type="DEFAULT_PEDTYPE" depart="35.80" arrival="57.00">
        <walk edges="28998778#2 522833729#1 522833732#1 -522833738"/>
    </person>

    <person id="person_0" depart="0.00" arrival="68.00">
        <walk edges="28998778#1"/>
    </person>

    <person id="0" type="DEFAULT_PEDTYPE" depart="0.80" arrival="87.00">
        <walk edges="29033731 -191987469#1"/>
    </person>

    <person id="12" type="DEFAULT_PEDTYPE" depart="12.00" arrival="93.00">
        <walk edges="996144772#1 23195752#2"/>
    </person>

    <person id="49" type="DEFAULT_PEDTYPE" depart="83.00" arrival="112.00">
        <walk edges="192464423#1 997769915 322548792#4"/>
    </person>

    <person id="108" type="DEFAULT_PEDTYPE" depart="160.00">
        <walk edges="28710934 -191959712#0 191959714 -522833721 -191979122 -191979121 522833720#0 28998778#3 28998778#0 1002422788 1002422790"/>
    </person>

    <person id="50" type="DEFAULT_PEDTYPE" depart="83.40" arrival="164.00">
        <walk edges="-184427426#0 29033734#2 29033734#1 29033734#0 190606079#0 190606079#1 539419137#1"/>
    </person>

    <person id="113" type="DEFAULT_PEDTYPE" depart="166.40">
        <walk edges="28710934 -191959712#0 191959714 -522833721 -191979122 -191979121 522833720#0 28998778#2 23195501#1"/>
    </person>

    <person id="16" type="DEFAULT_PEDTYPE" depart="19.80" arrival="174.00">
        <walk edges="647483358 647483360#1 647483359#1 -322548792#4 997769915 997769913#1 -322548792#8 23195754#1 997944684 23195754#4"/>
    </person>

    <person id="15" type="DEFAULT_PEDTYPE" depart="17.80" arrival="182.00">
        <walk edges="28719193 116985957#2 116985957#1 116985957#0 23195336#1 647789889 -545496366#1 28708932"/>
    </person>

    <person id="81" type="DEFAULT_PEDTYPE" depart="128.40" arrival="183.00">
        <walk edges="23195754#4 997944684 23195754#2 -23196319"/>
    </person>

    <person id="34" type="DEFAULT_PEDTYPE" depart="52.00" arrival="195.00">
        <walk edges="185271779#1 522833741#1 522833744 -191987465#1 191987465#0 522431205 191987466 185271780#1 -28729752 28729524"/>
    </person>

    <person id="5" type="DEFAULT_PEDTYPE" depart="6.80" arrival="197.00">
        <walk edges="446644391#1 1096787480 191987467#2 28729752 522431210#1 116632638#0 23195329#1"/>
    </person>

    <person id="89" type="DEFAULT_PEDTYPE" depart="136.60" arrival="200.00">
        <walk edges="28999595#1 -185271779#1 522833731#1"/>
    </person>

    <person id="55" type="DEFAULT_PEDTYPE" depart="87.80" arrival="200.00">
        <walk edges="28718918#1 1000553428 29241566#1 522431206 -28729752 29072595 1000553429"/>
    </person>

    <person id="52" type="DEFAULT_PEDTYPE" depart="85.00" arrival="203.00">
        <walk edges="545660374#1 645997037 28719191#1 545722931 545722933#1 656804230 191979118#1 1094949083 23195325#1 1095603369#1 1095603369#0 1095603370#1 1095603370#4 1095603371#1 1095603363 1094949085#1 1094949085#2"/>
    </person>

    <person id="73" type="DEFAULT_PEDTYPE" depart="110.20" arrival="206.00">
        <walk edges="1095603369#0 1095603370#1 1095603370#4 1095603371#1 1095603363 1094949085#1 64973455#0 64973455#1 116985957#1 23195339"/>
    </person>

    <person id="6" type="DEFAULT_PEDTYPE" depart="7.80" arrival="208.00">
        <walk edges="-1000553429 29072595 28729752 522431206 29241566#1 1000553428 28718918#1 28718918#2 191979118#0"/>
    </person>

    <person id="1" type="DEFAULT_PEDTYPE" depart="1.20" arrival="209.00">
        <walk edges="23195803 -191979122 191979121 522833720#0 28998778#2 522833729#1 522833732#1 522833731#1 998769535#1 998769535#0 998769540#0 998769540#1 998769532 23195328#0 23195328#1"/>
    </person>

    <person id="137" type="DEFAULT_PEDTYPE" depart="187.60" arrival="211.00">
        <walk edges="-184427426#3 539483270"/>
    </person>

    <person id="14" type="DEFAULT_PEDTYPE" depart="17.60" arrival="212.00">
        <walk edges="23195336#1 647789889 998769531 998769539 54704028#1 54704028#0 998769538#0 998769538#1 -998769537 522833729#1 522833732#1 184427434#0"/>
    </person>

    <person id="74" type="DEFAULT_PEDTYPE" depart="111.80" arrival="215.00">
        <walk edges="23195500#1 23195500#0 184157394 -191959712#0 23195502#1"/>
    </person>

    <person id="2" type="DEFAULT_PEDTYPE" depart="1.20" arrival="219.00">
        <walk edges="998769529 54704028#0 998769538#0 545477613#0 545477613#1 545477613#2 452767836#0 452767836#1 28709107#1 191979127#0 191979127#3 191959704#0 117561950 167255138#1 995252087#1"/>
    </person>

    <person id="80" type="DEFAULT_PEDTYPE" depart="121.60" arrival="220.00">
        <walk edges="29033732 23196322#0 184427426#4 539483276"/>
    </person>

    <person id="10" type="DEFAULT_PEDTYPE" depart="10.80" arrival="221.00">
        <walk edges="28718918#1 1000553428 29241566#1 522431206 -185271780#1 -191987466 522431205 191987465#0 191987465#1 522833744 522833741#1 -522833746"/>
    </person>

    <person id="69" type="DEFAULT_PEDTYPE" depart="106.40" arrival="225.00">
        <walk edges="539483276 -184427426#4 -184427426#3 539483280#1"/>
    </person>

    <person id="83" type="DEFAULT_PEDTYPE" depart="129.00" arrival="226.00">
        <walk edges="191987466 -191987466 522431205 191987465#0 191987465#1 522833744 522833741#1 28718922#1"/>
    </person>

    <person id="123" type="DEFAULT_PEDTYPE" depart="175.60" arrival="227.00">
        <walk edges="461160629 190606077#0 29033731"/>
    </person>

    <person id="36" type="DEFAULT_PEDTYPE" depart="53.20" arrival="233.00">
        <walk edges="28998778#3 28998778#2 522833729#1 522833732#1 522833731#1 998769535#1 998769535#0 998769540#0 998769540#1 998769532 429515619#0 429515619#1 429515619#2 1094949085#0 1095603363 1095603372#3 1095603372#4 1095603366#0 1095603366#1"/>
    </person>

    <person id="90" type="DEFAULT_PEDTYPE" depart="137.20" arrival="241.00">
        <walk edges="28719327 997769915 185096716#0 185096716#1"/>
    </person>

    <person id="22" type="DEFAULT_PEDTYPE" depart="30.00" arrival="241.00">
        <walk edges="23195752#1 23195754#5 996364918 23195752#2 522833721 -191959714 23195502#1"/>
    </person>

    <person id="43" type="DEFAULT_PEDTYPE" depart="74.40" arrival="256.00">
        <walk edges="29241566#0 522431207 28719125#1 -191987465#1 -191987465#0 522431205 123592772#1 123592772#2 190606077#2 190606077#3 587561458"/>
    </person>

    <person id="79" type="DEFAULT_PEDTYPE" depart="118.60" arrival="256.00">
        <walk edges="23195794 998769535#1 998769541#1"/>
    </person>

    <person id="104" type="DEFAULT_PEDTYPE" depart="153.00" arrival="274.00">
        <walk edges="545476129#5 484335723#0 485720696 397927055#0 191987468#1 539419137#1 190606073 184427426#0"/>
    </person>

    <person id="114" type="DEFAULT_PEDTYPE" depart="166.40" arrival="275.00">
        <walk edges="28708935#0 28708934#0 998769538#1 -998769538#0 54704028#0 998769529 545496366#1"/>
    </person>

    <person id="167" type="DEFAULT_PEDTYPE" depart="234.40" arrival="276.00">
        <walk edges="998769540#1 998769540#0 28708934#1 28708934#0"/>
    </person>

    <person id="136" type="DEFAULT_PEDTYPE" depart="187.00" arrival="277.00">
        <walk edges="539419138 190606079#1 190606079#0 29033803"/>
    </person>

    <person id="29" type="DEFAULT_PEDTYPE" depart="46.20" arrival="280.00">
        <walk edges="655693841 655693840 23195501#1 522833729#1 522833732#1 522833731#1 998769535#1 998769535#0 998769540#0 998769540#1 998769532 429515619#0 429515619#1 544210703#0"/>
    </person>

    <person id="62" type="DEFAULT_PEDTYPE" depart="99.40" arrival="290.00">
        <walk edges="23195754#1 322548792#10 545496366#1 1001467661 23195328#0 23195328#1 23195328#2 23195328#3"/>
    </person>

    <person id="131" type="DEFAULT_PEDTYPE" depart="180.20" arrival="291.00">
        <walk edges="996144772#1 -191959706#0 192464423#1 997769913#1"/>
    </person>

    <person id="8" type="DEFAULT_PEDTYPE" depart="9.20" arrival="296.00">
        <walk edges="23195795 190606081 484335723#2 484335723#1 545476129#5 522833744 -191987465#1 -191987465#0 522431205 123592772#1"/>
    </person>

    <person id="31" type="DEFAULT_PEDTYPE" depart="49.80" arrival="297.00">
        <walk edges="-322548792#10 998769529 54704028#0 -998769538#0 998769538#1 998769537 28998662#1 28998662#0 191871225#2 23195800"/>
    </person>

    <person id="93" type="DEFAULT_PEDTYPE" depart="139.20" arrival="297.00">
        <walk edges="29241566#0 522431207 28719125#1 -191987465#1 -191987465#0 522431205 191987466 185271780#1 -28729752 29072595 1000553429"/>
    </person>

    <person id="21" type="DEFAULT_PEDTYPE" depart="28.80" arrival="297.00">
        <walk edges="28710755#0 28710755#2 996144772#1 23195752#2 -191979122 193099645#2 193099645#1"/>
    </person>

    <person id="122" type="DEFAULT_PEDTYPE" depart="175.40" arrival="298.00">
        <walk edges="29072594 -191987467#2 1096787480 484372692"/>
    </person>

    <person id="105" type="DEFAULT_PEDTYPE" depart="153.80" arrival="309.00">
        <walk edges="998769537 522833729#1 522833732#1 522833731#1 185271779#1 522833741#1 522833744 28719125#1 522431207 29241566#0"/>
    </person>

    <person id="128" type="DEFAULT_PEDTYPE" depart="178.80" arrival="309.00">
        <walk edges="23195500#1 23195500#0 184157394 -191959712#0 191959714 -522833721 -191979122 193099645#2"/>
    </person>

    <person id="124" type="DEFAULT_PEDTYPE" depart="176.20" arrival="311.00">
        <walk edges="23195792#0 184427443 190606088#1 190606088#0 191785971 190606089 190606081 484335723#2 484335723#1 545476129#5"/>
    </person>

    <person id="44" type="DEFAULT_PEDTYPE" depart="75.60" arrival="312.00">
        <walk edges="29241566#0 522431207 28719125#1 522833744 522833741#1 -185271779#1 522833731#1 522833732#1 522833729#1 28998778#2 -522833720#0 191979121 191979122 522833721 -191959714 23195804#0"/>
    </person>

    <person id="134" type="DEFAULT_PEDTYPE" depart="184.80" arrival="316.00">
        <walk edges="23195338 322548792#10 998769529 54704028#0 998769538#0 545477613#0 545477613#1 545477613#2 452767836#0 452767836#1"/>
    </person>

    <person id="101" type="DEFAULT_PEDTYPE" depart="148.00" arrival="317.00">
        <walk edges="-28710755#2 996144772#1 23195752#2 522833721 -191959714 191959712#0"/>
    </person>

    <person id="78" type="DEFAULT_PEDTYPE" depart="118.20" arrival="317.00">
        <walk edges="28719191#5 28719191#4 23195330#0 645997039 645997041 645997037 28719191#1 545722931 545722933#1 656804230 191979118#0 23195328#4 1001467663 522833744 522833741#1 -185271779#1 522833731#1 522833732#1"/>
    </person>

    <person id="57" type="DEFAULT_PEDTYPE" depart="89.00" arrival="318.00">
        <walk edges="116632638#2 23195330#1 645997039 645997041 645997037 28719191#1 545722931 545722933#1 656804230 191979118#0 23195328#4 1001467663 522833744 522833741#1 28718922#1"/>
    </person>

    <person id="166" type="DEFAULT_PEDTYPE" depart="226.00" arrival="319.00">
        <walk edges="997944688#1 997944688#0 997769913#1 997769915 322548792#4 322548792#3 322548792#2 -322548792#1"/>
    </person>

    <person id="37" type="DEFAULT_PEDTYPE" depart="58.40" arrival="321.00">
        <walk edges="28710751#0 28710755#2 996144772#1 191979127#0 28709107#1 28709107#0 522833720#0 28998778#2 23195501#1"/>
    </person>

    <person id="60" type="DEFAULT_PEDTYPE" depart="97.40" arrival="325.00">
        <walk edges="-28718922#1 -185271779#1 522833731#1 522833732#1 522833729#1 28998778#2 28998778#3 28998778#0 28998778#1"/>
    </person>

    <person id="70" type="DEFAULT_PEDTYPE" depart="107.40" arrival="325.00">
        <walk edges="545476129#5 522833744 28719125#1 522431207 29241566#0"/>
    </person>

    <person id="23" type="DEFAULT_PEDTYPE" depart="31.80" arrival="325.00">
        <walk edges="997944688#1 997944688#0 23195339 116985957#1 64973455#1 64973455#0 1094949085#1 1095603363 1095603371#1 1095603370#4 1095603370#1 1095603369#0 1095603369#1 23195325#1 1094949083 191979118#1 656804230 545722933#1 545722931 28719191#1 645997037 545660374#1"/>
    </person>

    <person id="3" type="DEFAULT_PEDTYPE" depart="2.80" arrival="330.00">
        <walk edges="23195804#0 191959714 -522833721 -191979122 -191979121 522833720#0 28998778#2 522833729#1 522833732#1 522833731#1 998769535#1 998769535#0 998769540#0 998769540#1 998769532 1001467661"/>
    </person>

    <person id="95" type="DEFAULT_PEDTYPE" depart="140.60" arrival="335.00">
        <walk edges="-23195496 545476127#0 655717649#6 655717647 539419147#1 539419137#1 190606079#1 190606079#0 29033734#0 587561458 190606077#4 190606077#5 -184427426#1"/>
    </person>

    <person id="209" type="DEFAULT_PEDTYPE" depart="284.00" arrival="336.00">
        <walk edges="192464423#1 997769915 322548792#4 647483359#1 647483360#1 647483360#0"/>
    </person>

    <person id="19" type="DEFAULT_PEDTYPE" depart="25.60" arrival="337.00">
        <walk edges="29072594 28729752 -185271780#1 -191987466 522431205 191987465#0 191987465#1 522833744 522833741#1 458676577#2 1000553426#1 1000553424 522497449 23195328#0 1001467661"/>
    </person>

    <person id="41" type="DEFAULT_PEDTYPE" depart="69.20" arrival="339.00">
        <walk edges="23195328#0 1001467661 -545496366#1 322548792#10 322548792#8 997769913#1 997769915 28710410#2 -23195751#2 -23195751#1 23195751#1"/>
    </person>

    <person id="42" type="DEFAULT_PEDTYPE" depart="71.60" arrival="344.00">
        <walk edges="28999595#1 -185271779#1 522833731#1 184427434#0 190606088#1 661212190 23195793"/>
    </person>

    <person id="140" type="DEFAULT_PEDTYPE" depart="194.40" arrival="345.00">
        <walk edges="-322548792#1 322548792#2 -322548792#3 -322548792#4 997769915 997769913#1 -322548792#8 322548792#10 998769529 54704028#0 -998769538#0"/>
    </person>

    <person id="26" type="DEFAULT_PEDTYPE" depart="40.00" arrival="346.00">
        <walk edges="-23195751#1 23195751#2 28710410#2 997769915 997769913#1 -322548792#8 322548792#10 998769529 54704028#0 998769538#0 998769538#1 998769537 191979123"/>
    </person>

    <person id="17" type="DEFAULT_PEDTYPE" depart="21.20" arrival="347.00">
        <walk edges="545660374#1 645997037 28719191#1 545722931 545722933#1 656804230 191979118#1 1094949083 23195325#1 1095603369#1 1095603369#0 1095603370#1 1095603370#4 1095603371#1 1095603363 1094949085#1 64973455#0 64973455#1 116985957#1 23195339 997935758#1 997944679#1 23195755#3 -28710755#2"/>
    </person>

    <person id="97" type="DEFAULT_PEDTYPE" depart="144.00" arrival="348.00">
        <walk edges="-28718922#1 -185271779#1 522833731#1 522833732#1 522833729#1 28998662#1 28998662#0 191871225#2"/>
    </person>

    <person id="87" type="DEFAULT_PEDTYPE" depart="133.60" arrival="349.00">
        <walk edges="193099645#2 191979122 23195752#2 996144772#1 28710755#2 28710751#0"/>
    </person>

    <person id="224" type="DEFAULT_PEDTYPE" depart="295.40" arrival="349.00">
        <walk edges="1000553426#0 458676577#1 458676577#2 -28718922#1"/>
    </person>

    <person id="92" type="DEFAULT_PEDTYPE" depart="138.80" arrival="350.00">
        <walk edges="23195752#1 23195754#5 996364918 191979127#3 191959704#0 117561950 167255138#1 28709109#0 23195500#1 606454892"/>
    </person>

    <person id="258" type="DEFAULT_PEDTYPE" depart="353.60">
        <walk edges="28710934 -191959712#0 191959714 -522833721 -191979122 -191979121 522833720#0 28998778#2 522833729#1 522833732#1 522833731#1 185271779#1 522833741#1 522833744 1001467663 23195328#4 191979118#0 656804230 545722933#1 545722931 28719191#1 645997037 645997038 23195329#1"/>
    </person>

    <person id="115" type="DEFAULT_PEDTYPE" depart="166.60" arrival="356.00">
        <walk edges="28719327 997769913#1 -322548792#8 322548792#10 998769529 54704028#0 998769538#0 998769538#1 998769537 522833729#1 522833732#1 522833731#1 -185271779#1"/>
    </person>

    <person id="77" type="DEFAULT_PEDTYPE" depart="114.40" arrival="357.00">
        <walk edges="29241566#0 522431207 28719125#1 522833744 522833741#1 458676577#2 1000553426#1 1000553424 522497449 23195328#0 429515619#0 429515619#1 429515619#2 1094949085#0 1094949085#1 1094949085#2 23195340#0 647789894"/>
    </person>

    <person id="68" type="DEFAULT_PEDTYPE" depart="106.00" arrival="363.00">
        <walk edges="32062050#1 655717650#0 655717650#1 -485720694 -485720696 484335723#0 484335723#1 484335723#2 190606081 190606089 191785971 190606088#0 190606088#1 184427443 190606083 655693840 655693839 191871225#3 191871225#2 191871225#1 191871225#0 193099645#1"/>
    </person>

    <person id="130" type="DEFAULT_PEDTYPE" depart="180.20" arrival="365.00">
        <walk edges="23195792#0 184427443 190606088#1 190606088#0 191785971 190606089 190606081 484335723#2 484335723#1 484335723#0 485720696 539419136 539419145#1 655717649#3 545476127#1 545476127#0 -23195496"/>
    </person>

    <person id="9" type="DEFAULT_PEDTYPE" depart="10.60" arrival="365.00">
        <walk edges="28729034#0 28729036 185096716#1 185096714 23195340#0 1094949085#2 1094949085#1 1094949085#0 429515619#2 429515619#1 429515619#0 23195328#0 522497449 1000553424 1000553426#1 458676577#2 28999595#1"/>
    </person>

    <person id="120" type="DEFAULT_PEDTYPE" depart="170.60" arrival="365.00">
        <walk edges="191871225#2 191871225#1 191871225#0 193099645#1 193099645#2 191979122 23195752#2"/>
    </person>

    <person id="163" type="DEFAULT_PEDTYPE" depart="224.00" arrival="365.00">
        <walk edges="23683441#0 193099645#2 191979122 23195752#2 996144772#1"/>
    </person>

    <person id="132" type="DEFAULT_PEDTYPE" depart="180.80" arrival="366.00">
        <walk edges="23195340#1 23195340#0 185096714 185096716#1 185096716#0 322548792#4 322548792#3 322548792#2 -322548792#1"/>
    </person>

    <person id="196" type="DEFAULT_PEDTYPE" depart="267.80" arrival="367.00">
        <walk edges="606454892 23195500#0 184157394 -191959712#0 191959712#0"/>
    </person>

    <person id="129" type="DEFAULT_PEDTYPE" depart="179.00" arrival="367.00">
        <walk edges="522833753 123592772#1 123592772#2 190606077#2 29033803 190606079#0 539419144"/>
    </person>

    <person id="30" type="DEFAULT_PEDTYPE" depart="49.40" arrival="367.00">
        <walk edges="655693841 655693840 23195501#1 522833729#1 522833732#1 522833731#1 185271779#1 522833741#1 522833744 -191987465#1 -191987465#0 522431205 191987466 185271780#1 -28729752 -28729524"/>
    </person>

    <person id="248" type="DEFAULT_PEDTYPE" depart="337.60" arrival="368.00">
        <walk edges="655717649#4 655717649#3 539419145#1 539419146#2 655717649#1 655717649#0 545476129#4"/>
    </person>

    <person id="85" type="DEFAULT_PEDTYPE" depart="131.20" arrival="373.00">
        <walk edges="1001467661 998769532 998769540#1 998769540#0 998769535#0 998769535#1 23195794 191785971 190606089 190606081 190606085"/>
    </person>

    <person id="18" type="DEFAULT_PEDTYPE" depart="24.20" arrival="373.00">
        <walk edges="23195749#0 191979127#3 191979127#0 28709107#1 28709107#0 522833720#0 28998778#2 522833729#1 522833732#1 522833731#1 23195794 191785971 190606089 190606081 190606085"/>
    </person>

    <person id="38" type="DEFAULT_PEDTYPE" depart="59.20" arrival="375.00">
        <walk edges="23195328#2 388912103 -28718922#1 522833741#1 545476129#5 545476129#4 545476129#3 545476129#2 545476129#1 655717639 655717640#1"/>
    </person>

    <person id="51" type="DEFAULT_PEDTYPE" depart="83.40" arrival="377.00">
        <walk edges="23195798 474164620#0 661212190 190606088#1 184427443 190606083 655693840 655693839 191871225#3 191871225#2 191871225#1 191871225#0 193099645#0"/>
    </person>

    <person id="143" type="DEFAULT_PEDTYPE" depart="200.60" arrival="378.00">
        <walk edges="28998663 191871225#0 193099645#0"/>
    </person>

    <person id="150" type="DEFAULT_PEDTYPE" depart="212.20" arrival="378.00">
        <walk edges="123592772#1 522431205 191987465#0 191987465#1 522833744 522833741#1 -185271779#1 23195794"/>
    </person>

    <person id="99" type="DEFAULT_PEDTYPE" depart="147.60" arrival="382.00">
        <walk edges="23195336#1 647789889 998769531 998769539 54704028#1 54704028#0 998769538#0 998769538#1 -998769537 28998778#2 28998778#3 28998778#0 28998778#1"/>
    </person>

    <person id="11" type="DEFAULT_PEDTYPE" depart="11.60" arrival="383.00">
        <walk edges="190606077#5 190606077#4 190606077#3 190606077#2 123592772#2 123592772#1 522431205 191987465#0 191987465#1 1001467663 23195328#3 192464435 544210703#1 1094949084 544210701 23195325#1 23195325#0 23195744"/>
    </person>

    <person id="168" type="DEFAULT_PEDTYPE" depart="236.20" arrival="383.00">
        <walk edges="28710755#2 23195749#1 -28710790#1 996022769#1 996022767"/>
    </person>

    <person id="76" type="DEFAULT_PEDTYPE" depart="112.20" arrival="385.00">
        <walk edges="23683441#1 470027848 28998778#0 1002422788 353382750#1 353382753 28998662#0 191871225#3 655693839 655693840 190606083 184427443 190606088#1 190606088#0 191785971 190606089 190606081 484335723#2 484335723#1 484335723#0 485720696 539419136 539419145#1 655717649#3 655717649#4"/>
    </person>

    <person id="183" type="DEFAULT_PEDTYPE" depart="248.20" arrival="391.00">
        <walk edges="23195798 191785971 23195794"/>
    </person>

    <person id="59" type="DEFAULT_PEDTYPE" depart="94.20" arrival="391.00">
        <walk edges="23195792#0 184427443 190606088#1 190606088#0 191785971 190606089 190606081 484335723#2 484335723#1 484335723#0 485720696 397927055#0 191987468#1 539419137#1 190606079#1 190606079#0 29033734#0 587561458 190606077#4 190606077#5 184427426#3 539483270"/>
    </person>

    <person id="240" type="DEFAULT_PEDTYPE" depart="320.20" arrival="391.00">
        <walk edges="23195744 28719128 23195340#1 23195340#0"/>
    </person>

    <person id="71" type="DEFAULT_PEDTYPE" depart="108.40" arrival="391.00">
        <walk edges="998798218 998769529 54704028#0 -998769538#0 545477613#0 545477613#1 545477613#2 452767836#0 452767836#1 28709107#0 191979121 191979122 522833721 -191959714 23195804#0"/>
    </person>

    <person id="256" type="DEFAULT_PEDTYPE" depart="351.20" arrival="397.00">
        <walk edges="23195329#1 645997038 645997037 28719191#1 545722931 545722933#1 656804230 191979118#1 1094949083 23195325#1"/>
    </person>

    <person id="72" type="DEFAULT_PEDTYPE" depart="108.80" arrival="398.00">
        <walk edges="28718922#1 -185271779#1 522833731#1 522833732#1 522833729#1 28998778#2 -522833720#0 191979121 191979122 522833721 -191959714 996022767 996022769#1"/>
    </person>

    <person id="28" type="DEFAULT_PEDTYPE" depart="46.00" arrival="402.00">
        <walk edges="23683441#1 470027848 28998778#3 28998778#2 522833729#1 522833732#1 522833731#1 185271779#1 522833741#1 522833744 -191987465#1 -191987465#0 522431205 191987466 185271780#1 522431206 29241566#1 1000553428 28718918#1"/>
    </person>

    <person id="235" type="DEFAULT_PEDTYPE" depart="317.80" arrival="402.00">
        <walk edges="23195794 191785971 190606089 190606081 484335723#2 484335723#1 484335723#0 485720696 539419136 539419145#1 655717649#3 655717649#4"/>
    </person>

    <person id="125" type="DEFAULT_PEDTYPE" depart="177.80" arrival="403.00">
        <walk edges="998769533 998769531 545496366#1 322548792#10 322548792#8 997769913#1 997769915 23195750#4 28710412#2 28709110#1"/>
    </person>

    <person id="61" type="DEFAULT_PEDTYPE" depart="97.80" arrival="404.00">
        <walk edges="23195752#1 23195754#5 23195754#4 997944684 23195754#1 322548792#8 23195339 116985957#1 64973455#1 64973455#0 1094949085#1 1095603363 1095603371#1 1095603370#4 1095603370#1 1095603369#0 1095603369#1 1095603364#1"/>
    </person>

    <person id="165" type="DEFAULT_PEDTYPE" depart="225.00" arrival="404.00">
        <walk edges="190606077#2 190606077#1 190606077#0 23195734 -23195499#2 484335723#0 484335723#1 484335723#2 190606081 23195795"/>
    </person>

    <person id="63" type="DEFAULT_PEDTYPE" depart="99.80" arrival="404.00">
        <walk edges="998769540#1 998769540#0 998769535#0 998769535#1 23195794 191785971 190606089 190606081 484335723#2 484335723#1 484335723#0 485720696 -397927055#0 191987468#1 539419147#1 539419146#1"/>
    </person>

    <person id="75" type="DEFAULT_PEDTYPE" depart="112.00" arrival="407.00">
        <walk edges="191979123 522833729#1 522833732#1 522833731#1 185271779#1 522833741#1 522833744 1001467663 23195328#4 191979118#0 656804230 545722933#1 545722931 28719191#1 645997037 645997041 645997039 23195330#1 116632638#2"/>
    </person>

    <person id="222" type="DEFAULT_PEDTYPE" depart="293.00" arrival="408.00">
        <walk edges="647483360#0 647483360#1 647483359#1 -322548792#4 997769915 997769913#1 23195339"/>
    </person>

    <person id="54" type="DEFAULT_PEDTYPE" depart="87.80" arrival="410.00">
        <walk edges="23195750#0 23195750#1 993984189 -191959706#1 -191959706#0 996144772#1 191979127#0 28709107#1 28709107#0 23683441#1"/>
    </person>

    <person id="33" type="DEFAULT_PEDTYPE" depart="50.80" arrival="412.00">
        <walk edges="23195325#1 544210701 1094949084 544210703#1 192464435 23195328#3 1001467663 23195499#0 -23195499#1 -23195499#2 485720696 -397927055#0 23195736"/>
    </person>

    <person id="84" type="DEFAULT_PEDTYPE" depart="130.00" arrival="414.00">
        <walk edges="1002422788 28998778#0 28998778#3 28998778#2 998769537 998769538#1 -998769538#0 54704028#0 998769529 322548792#10 322548792#8 997935758#1 997944679#1"/>
    </person>

    <person id="182" type="DEFAULT_PEDTYPE" depart="246.80" arrival="414.00">
        <walk edges="998769537 998769538#1 -998769538#0 54704028#0 998769529 322548792#10 322548792#8 997935758#1 997944679#1"/>
    </person>

    <person id="155" type="DEFAULT_PEDTYPE" depart="216.20" arrival="415.00">
        <walk edges="522833753 522431205 191987465#0 191987465#1 1001467663 23195328#3 192464435 544210703#1 1094949084 544210701 23195325#1 23195325#0 28719128 28719192"/>
    </person>

    <person id="127" type="DEFAULT_PEDTYPE" depart="178.80" arrival="416.00">
        <walk edges="-23195499#2 -23195499#1 23195499#0 -191987465#1 -191987465#0 522431205 191987466 185271780#1 522431206 29241566#1 1000553428"/>
    </person>

    <person id="66" type="DEFAULT_PEDTYPE" depart="101.80" arrival="417.00">
        <walk edges="353382750#1 1002422788 28998778#0 28998778#3 -522833720#0 28709107#0 28709107#1 191979127#0 191979127#3 23195749#0 -28710790#1"/>
    </person>

    <person id="109" type="DEFAULT_PEDTYPE" depart="160.80" arrival="418.00">
        <walk edges="23196322#0 539483270 -185271780#1 -191987466 522431205 -191987465#0 191987465#1 522833744 522833741#1 -185271779#1 998769535#1 998769535#0 998769540#0 998769540#1 998769533"/>
    </person>

    <person id="121" type="DEFAULT_PEDTYPE" depart="174.80" arrival="419.00">
        <walk edges="655693839 655693840 190606083 184427443 190606088#1 190606088#0 191785971 190606089 190606081 484335723#2 484335723#1 484335723#0 485720696 -397927055#0 191987468#1 539419137#1 190606079#1 190606079#0 29033734#0 29033734#1 29033734#2 -184427426#0"/>
    </person>

    <person id="251" type="DEFAULT_PEDTYPE" depart="340.60" arrival="420.00">
        <walk edges="647483358 647483360#1 28729034#2 -322548792#1 -322548792#0"/>
    </person>

    <person id="220" type="DEFAULT_PEDTYPE" depart="291.20" arrival="422.00">
        <walk edges="192464426 185096714 185096716#1 185096716#0 993930098 993930096#1 993930088"/>
    </person>

    <person id="40" type="DEFAULT_PEDTYPE" depart="66.40" arrival="425.00">
        <walk edges="539483270 -184427426#3 190606077#5 190606077#4 587561458 29033734#0 190606079#0 190606079#1 539419137#1 539419147#1 655717648 655717649#4 655717649#3 539419145#1 539419146#2 655717649#1 655717649#0 545476129#3 545476129#2 655717652 655717642 -435838563 397425078 474164620#0 23195793"/>
    </person>

    <person id="142" type="DEFAULT_PEDTYPE" depart="195.40" arrival="425.00">
        <walk edges="191959712#0 996022767 996022769#1 28710621#3 28710621#2 28710621#1"/>
    </person>

    <person id="300" type="DEFAULT_PEDTYPE" depart="417.60" arrival="426.00">
        <walk edges="655717644#1 545476129#0 545476129#1"/>
    </person>

    <person id="269" type="DEFAULT_PEDTYPE" depart="371.00" arrival="426.00">
        <walk edges="28719125#0 23195328#4 23195328#3 192464435 544210703#1 1094949084"/>
    </person>

    <person id="46" type="DEFAULT_PEDTYPE" depart="80.40" arrival="427.00">
        <walk edges="191987466 -191987466 522431205 191987465#0 191987465#1 522833744 522833741#1 -185271779#1 522833731#1 522833732#1 522833729#1 28998778#2 -522833720#0 191979121 -191979122 522833721 -191959714 -191959712#0 27119325"/>
    </person>
