<?xml version="1.0" encoding="UTF-8"?>

<!-- generated on Fri Mar 24 16:30:53 2023 by Eclipse SUMO sumo Version 1.8.0
<configuration xmlns:xsi="http://www.w3.org/2001/XMLSchema-instance" xsi:noNamespaceSchemaLocation="http://sumo.dlr.de/xsd/sumoConfiguration.xsd">

    <input>
        <net-file value="/home/toore/Tirocinio_SUMO/Scenario/Prova_out/Prova.net.xml"/>
        <route-files value="/home/toore/Tirocinio_SUMO/Scenario/Modena/peds.rou.xml"/>
    </input>

    <output>
        <fcd-output value="Persona_prova_fcd_out.xml"/>
    </output>

</configuration>
-->

<fcd-export xmlns:xsi="http://www.w3.org/2001/XMLSchema-instance" xsi:noNamespaceSchemaLocation="http://sumo.dlr.de/xsd/fcd_file.xsd">
    <timestep time="0.00">
        <person id="person_0" x="-8.77" y="56.45" angle="90.00" speed="0.00" pos="0.00" edge="gneE0" slope="0.00"/>
    </timestep>
    <timestep time="1.00">
        <person id="person_0" x="-7.56" y="56.45" angle="90.00" speed="1.21" pos="1.21" edge="gneE0" slope="0.00"/>
    </timestep>
    <timestep time="2.00">
        <person id="person_0" x="-6.30" y="56.45" angle="90.00" speed="1.26" pos="2.47" edge="gneE0" slope="0.00"/>
    </timestep>
    <timestep time="3.00">
        <person id="person_0" x="-4.84" y="56.45" angle="90.00" speed="1.46" pos="3.93" edge="gneE0" slope="0.00"/>
    </timestep>
    <timestep time="4.00">
        <person id="person_0" x="-3.51" y="56.45" angle="90.00" speed="1.33" pos="5.26" edge="gneE0" slope="0.00"/>
    </timestep>
    <timestep time="5.00">
        <person id="person_0" x="-2.21" y="56.45" angle="90.00" speed="1.30" pos="6.56" edge="gneE0" slope="0.00"/>
    </timestep>
    <timestep time="6.00">
        <person id="person_0" x="-0.75" y="56.45" angle="90.00" speed="1.46" pos="8.02" edge="gneE0" slope="0.00"/>
    </timestep>
    <timestep time="7.00">
        <person id="person_0" x="0.50" y="56.45" angle="90.00" speed="1.25" pos="9.27" edge="gneE0" slope="0.00"/>
    </timestep>
    <timestep time="8.00">
        <person id="person_0" x="1.90" y="56.45" angle="90.00" speed="1.40" pos="10.67" edge="gneE0" slope="0.00"/>
    </timestep>
    <timestep time="9.00">
        <person id="person_0" x="3.21" y="56.45" angle="90.00" speed="1.31" pos="11.98" edge="gneE0" slope="0.00"/>
    </timestep>
    <timestep time="10.00">
        <person id="person_0" x="4.46" y="56.45" angle="90.00" speed="1.25" pos="13.23" edge="gneE0" slope="0.00"/>
    </timestep>
    <timestep time="11.00">
        <person id="person_0" x="5.93" y="56.45" angle="90.00" speed="1.47" pos="14.70" edge="gneE0" slope="0.00"/>
    </timestep>
    <timestep time="12.00">
        <person id="person_0" x="7.21" y="56.45" angle="90.00" speed="1.27" pos="15.98" edge="gneE0" slope="0.00"/>
    </timestep>
    <timestep time="13.00">
        <person id="person_0" x="8.54" y="56.45" angle="90.00" speed="1.33" pos="17.31" edge="gneE0" slope="0.00"/>
    </timestep>
    <timestep time="14.00">
        <person id="person_0" x="9.88" y="56.45" angle="90.00" speed="1.34" pos="18.65" edge="gneE0" slope="0.00"/>
    </timestep>
    <timestep time="15.00">
        <person id="person_0" x="11.19" y="56.45" angle="90.00" speed="1.31" pos="19.96" edge="gneE0" slope="0.00"/>
    </timestep>
    <timestep time="16.00">
        <person id="person_0" x="12.58" y="56.45" angle="90.00" speed="1.39" pos="21.35" edge="gneE0" slope="0.00"/>
    </timestep>
    <timestep time="17.00">
        <person id="person_0" x="14.04" y="56.45" angle="90.00" speed="1.45" pos="22.81" edge="gneE0" slope="0.00"/>
    </timestep>
    <timestep time="18.00">
        <person id="person_0" x="15.25" y="56.45" angle="90.00" speed="1.21" pos="24.02" edge="gneE0" slope="0.00"/>
    </timestep>
    <timestep time="19.00">
        <person id="person_0" x="16.63" y="56.45" angle="90.00" speed="1.38" pos="25.40" edge="gneE0" slope="0.00"/>
    </timestep>
    <timestep time="20.00">
        <person id="person_0" x="17.90" y="56.45" angle="90.00" speed="1.27" pos="26.67" edge="gneE0" slope="0.00"/>
    </timestep>
    <timestep time="21.00">
        <person id="person_0" x="19.36" y="56.45" angle="90.00" speed="1.46" pos="28.13" edge="gneE0" slope="0.00"/>
    </timestep>
    <timestep time="22.00">
        <person id="person_0" x="20.68" y="56.45" angle="90.00" speed="1.32" pos="29.45" edge="gneE0" slope="0.00"/>
    </timestep>
    <timestep time="23.00">
        <person id="person_0" x="22.06" y="56.45" angle="90.00" speed="1.38" pos="30.83" edge="gneE0" slope="0.00"/>
    </timestep>
    <timestep time="24.00">
        <person id="person_0" x="23.35" y="56.45" angle="90.00" speed="1.29" pos="32.12" edge="gneE0" slope="0.00"/>
    </timestep>
    <timestep time="25.00">
        <person id="person_0" x="24.54" y="56.45" angle="90.00" speed="1.20" pos="33.31" edge="gneE0" slope="0.00"/>
    </timestep>
    <timestep time="26.00">
        <person id="person_0" x="25.77" y="56.45" angle="90.00" speed="1.23" pos="34.54" edge="gneE0" slope="0.00"/>
    </timestep>
    <timestep time="27.00">
        <person id="person_0" x="26.98" y="56.45" angle="90.00" speed="1.21" pos="35.75" edge="gneE0" slope="0.00"/>
    </timestep>
    <timestep time="28.00">
        <person id="person_0" x="28.34" y="56.45" angle="90.00" speed="1.36" pos="37.11" edge="gneE0" slope="0.00"/>
    </timestep>
    <timestep time="29.00">
        <person id="person_0" x="29.65" y="56.45" angle="90.00" speed="1.31" pos="38.42" edge="gneE0" slope="0.00"/>
    </timestep>
    <timestep time="30.00">
        <person id="person_0" x="31.05" y="56.45" angle="90.00" speed="1.40" pos="39.82" edge="gneE0" slope="0.00"/>
    </timestep>
    <timestep time="31.00">
        <person id="person_0" x="32.51" y="56.45" angle="90.00" speed="1.46" pos="41.28" edge="gneE0" slope="0.00"/>
    </timestep>
    <timestep time="32.00">
        <person id="person_0" x="33.90" y="56.45" angle="90.00" speed="1.38" pos="42.67" edge="gneE0" slope="0.00"/>
    </timestep>
    <timestep time="33.00">
        <person id="person_0" x="35.14" y="56.45" angle="90.00" speed="1.25" pos="43.91" edge="gneE0" slope="0.00"/>
    </timestep>
    <timestep time="34.00">
        <person id="person_0" x="36.57" y="56.45" angle="90.00" speed="1.43" pos="45.34" edge="gneE0" slope="0.00"/>
    </timestep>
    <timestep time="35.00">
        <person id="person_0" x="37.76" y="56.45" angle="90.00" speed="1.19" pos="46.53" edge="gneE0" slope="0.00"/>
    </timestep>
    <timestep time="36.00">
        <person id="person_0" x="39.22" y="56.45" angle="90.00" speed="1.46" pos="47.99" edge="gneE0" slope="0.00"/>
    </timestep>
    <timestep time="37.00">
        <person id="person_0" x="40.49" y="56.45" angle="90.00" speed="1.27" pos="49.26" edge="gneE0" slope="0.00"/>
    </timestep>
    <timestep time="38.00">
        <person id="person_0" x="41.87" y="56.45" angle="90.00" speed="1.37" pos="50.64" edge="gneE0" slope="0.00"/>
    </timestep>
    <timestep time="39.00">
        <person id="person_0" x="43.30" y="56.45" angle="90.00" speed="1.43" pos="52.07" edge="gneE0" slope="0.00"/>
    </timestep>
    <timestep time="40.00">
        <person id="person_0" x="44.74" y="56.45" angle="90.00" speed="1.44" pos="53.51" edge="gneE0" slope="0.00"/>
    </timestep>
    <timestep time="41.00">
        <person id="person_0" x="46.09" y="56.45" angle="90.00" speed="1.35" pos="54.86" edge="gneE0" slope="0.00"/>
    </timestep>
    <timestep time="42.00">
        <person id="person_0" x="47.28" y="56.45" angle="90.00" speed="1.19" pos="56.05" edge="gneE0" slope="0.00"/>
    </timestep>
    <timestep time="43.00">
        <person id="person_0" x="48.67" y="56.45" angle="90.00" speed="1.39" pos="57.44" edge="gneE0" slope="0.00"/>
    </timestep>
    <timestep time="44.00">
        <person id="person_0" x="50.08" y="56.45" angle="90.00" speed="1.41" pos="58.85" edge="gneE0" slope="0.00"/>
    </timestep>
    <timestep time="45.00">
        <person id="person_0" x="51.50" y="56.45" angle="90.00" speed="1.42" pos="60.27" edge="gneE0" slope="0.00"/>
    </timestep>
    <timestep time="46.00">
        <person id="person_0" x="52.81" y="56.45" angle="90.00" speed="1.30" pos="61.58" edge="gneE0" slope="0.00"/>
    </timestep>
    <timestep time="47.00">
        <person id="person_0" x="54.21" y="56.45" angle="90.00" speed="1.40" pos="62.98" edge="gneE0" slope="0.00"/>
    </timestep>
    <timestep time="48.00">
        <person id="person_0" x="55.44" y="56.45" angle="90.00" speed="1.23" pos="64.21" edge="gneE0" slope="0.00"/>
    </timestep>
    <timestep time="49.00">
        <person id="person_0" x="56.89" y="56.45" angle="90.00" speed="1.45" pos="65.66" edge="gneE0" slope="0.00"/>
    </timestep>
    <timestep time="50.00">
        <person id="person_0" x="58.16" y="56.45" angle="90.00" speed="1.28" pos="66.93" edge="gneE0" slope="0.00"/>
    </timestep>
    <timestep time="51.00">
        <person id="person_0" x="59.42" y="56.45" angle="90.00" speed="1.26" pos="68.19" edge="gneE0" slope="0.00"/>
    </timestep>
    <timestep time="52.00">
        <person id="person_0" x="60.72" y="56.45" angle="90.00" speed="1.30" pos="69.49" edge="gneE0" slope="0.00"/>
    </timestep>
    <timestep time="53.00">
        <person id="person_0" x="61.99" y="56.45" angle="90.00" speed="1.27" pos="70.76" edge="gneE0" slope="0.00"/>
    </timestep>
    <timestep time="54.00">
        <person id="person_0" x="63.18" y="56.45" angle="90.00" speed="1.20" pos="71.95" edge="gneE0" slope="0.00"/>
    </timestep>
    <timestep time="55.00">
        <person id="person_0" x="64.37" y="56.45" angle="90.00" speed="1.19" pos="73.14" edge="gneE0" slope="0.00"/>
    </timestep>
    <timestep time="56.00">
        <person id="person_0" x="65.76" y="56.45" angle="90.00" speed="1.38" pos="74.53" edge="gneE0" slope="0.00"/>
    </timestep>
    <timestep time="57.00">
        <person id="person_0" x="67.08" y="56.45" angle="90.00" speed="1.33" pos="75.85" edge="gneE0" slope="0.00"/>
    </timestep>
    <timestep time="58.00">
        <person id="person_0" x="68.38" y="56.45" angle="90.00" speed="1.30" pos="77.15" edge="gneE0" slope="0.00"/>
    </timestep>
    <timestep time="59.00">
        <person id="person_0" x="69.81" y="56.45" angle="90.00" speed="1.42" pos="78.58" edge="gneE0" slope="0.00"/>
    </timestep>
    <timestep time="60.00">
        <person id="person_0" x="71.00" y="56.45" angle="90.00" speed="1.19" pos="79.77" edge="gneE0" slope="0.00"/>
    </timestep>
    <timestep time="61.00">
        <person id="person_0" x="72.42" y="56.45" angle="90.00" speed="1.42" pos="81.19" edge="gneE0" slope="0.00"/>
    </timestep>
    <timestep time="62.00">
        <person id="person_0" x="73.70" y="56.45" angle="90.00" speed="1.28" pos="82.47" edge="gneE0" slope="0.00"/>
    </timestep>
    <timestep time="63.00">
        <person id="person_0" x="75.13" y="56.45" angle="90.00" speed="1.43" pos="83.90" edge="gneE0" slope="0.00"/>
    </timestep>
    <timestep time="64.00">
        <person id="person_0" x="76.59" y="56.45" angle="90.00" speed="1.46" pos="85.36" edge="gneE0" slope="0.00"/>
    </timestep>
    <timestep time="65.00">
        <person id="person_0" x="79.72" y="57.17" angle="51.88" speed="1.39" pos="0.18" edge="gneE1" slope="0.00"/>
    </timestep>
    <timestep time="66.00">
        <person id="person_0" x="80.75" y="57.98" angle="51.88" speed="1.31" pos="1.49" edge="gneE1" slope="0.00"/>
    </timestep>
    <timestep time="67.00">
        <person id="person_0" x="81.70" y="58.72" angle="51.88" speed="1.20" pos="2.69" edge="gneE1" slope="0.00"/>
    </timestep>
    <timestep time="68.00">
        <person id="person_0" x="82.84" y="59.62" angle="51.88" speed="1.45" pos="4.14" edge="gneE1" slope="0.00"/>
    </timestep>
    <timestep time="69.00">
        <person id="person_0" x="83.96" y="60.50" angle="51.88" speed="1.42" pos="5.56" edge="gneE1" slope="0.00"/>
    </timestep>
    <timestep time="70.00">
        <person id="person_0" x="84.88" y="61.23" angle="51.88" speed="1.18" pos="6.74" edge="gneE1" slope="0.00"/>
    </timestep>
    <timestep time="71.00">
        <person id="person_0" x="85.97" y="62.08" angle="51.88" speed="1.38" pos="8.12" edge="gneE1" slope="0.00"/>
    </timestep>
    <timestep time="72.00">
        <person id="person_0" x="87.05" y="62.92" angle="51.88" speed="1.37" pos="9.50" edge="gneE1" slope="0.00"/>
    </timestep>
    <timestep time="73.00">
        <person id="person_0" x="88.19" y="63.82" angle="51.88" speed="1.45" pos="10.94" edge="gneE1" slope="0.00"/>
    </timestep>
    <timestep time="74.00">
        <person id="person_0" x="89.21" y="64.62" angle="51.88" speed="1.31" pos="12.25" edge="gneE1" slope="0.00"/>
    </timestep>
    <timestep time="75.00">
        <person id="person_0" x="90.32" y="65.49" angle="51.88" speed="1.41" pos="13.66" edge="gneE1" slope="0.00"/>
    </timestep>
    <timestep time="76.00">
        <person id="person_0" x="91.44" y="66.37" angle="51.88" speed="1.42" pos="15.08" edge="gneE1" slope="0.00"/>
    </timestep>
    <timestep time="77.00">
        <person id="person_0" x="92.59" y="67.27" angle="51.88" speed="1.46" pos="16.54" edge="gneE1" slope="0.00"/>
    </timestep>
    <timestep time="78.00">
        <person id="person_0" x="93.73" y="68.16" angle="51.88" speed="1.45" pos="17.98" edge="gneE1" slope="0.00"/>
    </timestep>
    <timestep time="79.00">
        <person id="person_0" x="94.72" y="68.94" angle="51.88" speed="1.26" pos="19.24" edge="gneE1" slope="0.00"/>
    </timestep>
    <timestep time="80.00"/>
</fcd-export>
