<?xml version="1.0" encoding="UTF-8"?>

<!-- generated on Wed Dec  7 17:39:37 2022 by Eclipse SUMO sumo Version 1.8.0
<configuration xmlns:xsi="http://www.w3.org/2001/XMLSchema-instance" xsi:noNamespaceSchemaLocation="http://sumo.dlr.de/xsd/sumoConfiguration.xsd">

    <input>
        <net-file value="Area_pedonale.net.xml"/>
        <route-files value="Area_pedonale.rou.xml,persontrip.rou.xml"/>
    </input>

    <output>
        <fcd-output value="AreaP_fcdOUT_persontrip.xml"/>
    </output>

    <time>
        <begin value="0"/>
        <end value="50000"/>
    </time>

</configuration>
-->

<fcd-export xmlns:xsi="http://www.w3.org/2001/XMLSchema-instance" xsi:noNamespaceSchemaLocation="http://sumo.dlr.de/xsd/fcd_file.xsd">
    <timestep time="0.00">
        <person id="person_0" x="81.34" y="48.78" angle="270.00" speed="0.00" pos="0.00" edge="-gneE0" slope="0.00"/>
    </timestep>
    <timestep time="1.00">
        <person id="person_0" x="80.13" y="48.78" angle="270.00" speed="1.21" pos="1.21" edge="-gneE0" slope="0.00"/>
    </timestep>
    <timestep time="2.00">
        <person id="0" x="81.34" y="48.78" angle="270.00" speed="0.00" pos="0.00" edge="-gneE0" slope="0.00"/>
        <person id="person_0" x="78.87" y="48.78" angle="270.00" speed="1.26" pos="2.47" edge="-gneE0" slope="0.00"/>
    </timestep>
    <timestep time="3.00">
        <person id="0" x="80.16" y="48.78" angle="270.00" speed="1.18" pos="1.18" edge="-gneE0" slope="0.00"/>
        <person id="person_0" x="77.41" y="48.78" angle="270.00" speed="1.46" pos="3.93" edge="-gneE0" slope="0.00"/>
    </timestep>
    <timestep time="4.00">
        <person id="2" x="81.34" y="46.22" angle="90.00" speed="0.00" pos="0.00" edge="-gneE0" slope="0.00"/>
        <person id="0" x="78.87" y="48.78" angle="270.00" speed="1.29" pos="2.47" edge="-gneE0" slope="0.00"/>
        <person id="person_0" x="76.11" y="48.78" angle="270.00" speed="1.30" pos="5.23" edge="-gneE0" slope="0.00"/>
        <person id="1" x="-25.55" y="43.02" angle="90.00" speed="0.00" pos="0.00" edge="gneE0" slope="0.00"/>
        <person id="3" x="-25.55" y="43.02" angle="90.00" speed="0.00" pos="0.00" edge="gneE0" slope="0.00"/>
    </timestep>
    <timestep time="5.00">
        <person id="0" x="77.63" y="48.78" angle="270.00" speed="1.24" pos="3.71" edge="-gneE0" slope="0.00"/>
        <person id="person_0" x="74.86" y="48.78" angle="270.00" speed="1.25" pos="6.48" edge="-gneE0" slope="0.00"/>
        <person id="3" x="-24.98" y="43.02" angle="90.00" speed="0.57" pos="0.57" edge="gneE0" slope="0.00"/>
        <person id="1" x="-24.30" y="43.02" angle="90.00" speed="1.25" pos="1.25" edge="gneE0" slope="0.00"/>
        <person id="2" x="79.84" y="45.58" angle="270.00" speed="1.50" pos="105.39" edge="gneE0" slope="0.00"/>
    </timestep>
    <timestep time="6.00">
        <person id="5" x="81.34" y="46.22" angle="90.00" speed="0.00" pos="0.00" edge="-gneE0" slope="0.00"/>
        <person id="0" x="76.45" y="48.78" angle="270.00" speed="1.18" pos="4.89" edge="-gneE0" slope="0.00"/>
        <person id="person_0" x="73.58" y="48.78" angle="270.00" speed="1.27" pos="7.76" edge="-gneE0" slope="0.00"/>
        <person id="3" x="-23.71" y="43.02" angle="90.00" speed="1.27" pos="1.84" edge="gneE0" slope="0.00"/>
        <person id="1" x="-23.02" y="43.02" angle="90.00" speed="1.28" pos="2.53" edge="gneE0" slope="0.00"/>
        <person id="2" x="78.41" y="45.58" angle="270.00" speed="1.42" pos="103.96" edge="gneE0" slope="0.00"/>
    </timestep>
    <timestep time="7.00">
        <person id="0" x="75.38" y="48.78" angle="270.00" speed="1.07" pos="5.96" edge="-gneE0" slope="0.00"/>
        <person id="person_0" x="72.13" y="48.78" angle="270.00" speed="1.45" pos="9.21" edge="-gneE0" slope="0.00"/>
        <person id="3" x="-22.47" y="43.02" angle="90.00" speed="1.24" pos="3.08" edge="gneE0" slope="0.00"/>
        <person id="1" x="-21.71" y="43.02" angle="90.00" speed="1.31" pos="3.84" edge="gneE0" slope="0.00"/>
        <person id="2" x="77.06" y="45.58" angle="270.00" speed="1.35" pos="102.61" edge="gneE0" slope="0.00"/>
        <person id="5" x="80.20" y="45.58" angle="270.00" speed="1.14" pos="105.75" edge="gneE0" slope="0.00"/>
    </timestep>
    <timestep time="8.00">
        <person id="6" x="81.34" y="48.78" angle="270.00" speed="0.00" pos="0.00" edge="-gneE0" slope="0.00"/>
        <person id="0" x="74.24" y="48.78" angle="270.00" speed="1.14" pos="7.10" edge="-gneE0" slope="0.00"/>
        <person id="person_0" x="70.75" y="48.78" angle="270.00" speed="1.38" pos="10.59" edge="-gneE0" slope="0.00"/>
        <person id="3" x="-21.28" y="43.02" angle="90.00" speed="1.20" pos="4.27" edge="gneE0" slope="0.00"/>
        <person id="1" x="-20.57" y="43.02" angle="90.00" speed="1.14" pos="4.98" edge="gneE0" slope="0.00"/>
        <person id="2" x="75.83" y="45.58" angle="270.00" speed="1.24" pos="101.38" edge="gneE0" slope="0.00"/>
        <person id="5" x="79.13" y="45.58" angle="270.00" speed="1.06" pos="104.68" edge="gneE0" slope="0.00"/>
    </timestep>
    <timestep time="9.00">
        <person id="6" x="79.90" y="48.78" angle="270.00" speed="1.44" pos="1.44" edge="-gneE0" slope="0.00"/>
        <person id="0" x="73.00" y="48.78" angle="270.00" speed="1.24" pos="8.34" edge="-gneE0" slope="0.00"/>
        <person id="person_0" x="69.43" y="48.78" angle="270.00" speed="1.31" pos="11.91" edge="-gneE0" slope="0.00"/>
        <person id="3" x="-20.07" y="43.02" angle="90.00" speed="1.21" pos="5.48" edge="gneE0" slope="0.00"/>
        <person id="1" x="-19.25" y="43.02" angle="90.00" speed="1.32" pos="6.30" edge="gneE0" slope="0.00"/>
        <person id="2" x="74.37" y="45.58" angle="270.00" speed="1.46" pos="99.92" edge="gneE0" slope="0.00"/>
        <person id="5" x="78.20" y="45.58" angle="270.00" speed="0.93" pos="103.75" edge="gneE0" slope="0.00"/>
    </timestep>
    <timestep time="10.00">
        <person id="8" x="81.34" y="46.22" angle="90.00" speed="0.00" pos="0.00" edge="-gneE0" slope="0.00"/>
        <person id="6" x="78.54" y="48.78" angle="270.00" speed="1.36" pos="2.80" edge="-gneE0" slope="0.00"/>
        <person id="0" x="71.87" y="48.78" angle="270.00" speed="1.12" pos="9.47" edge="-gneE0" slope="0.00"/>
        <person id="person_0" x="67.97" y="48.78" angle="270.00" speed="1.46" pos="13.37" edge="-gneE0" slope="0.00"/>
        <person id="3" x="-18.67" y="43.02" angle="90.00" speed="1.40" pos="6.88" edge="gneE0" slope="0.00"/>
        <person id="1" x="-17.88" y="43.02" angle="90.00" speed="1.37" pos="7.67" edge="gneE0" slope="0.00"/>
        <person id="2" x="72.99" y="45.58" angle="270.00" speed="1.38" pos="98.54" edge="gneE0" slope="0.00"/>
        <person id="5" x="77.27" y="45.58" angle="270.00" speed="0.93" pos="102.82" edge="gneE0" slope="0.00"/>
    </timestep>
    <timestep time="11.00">
        <person id="6" x="77.14" y="48.78" angle="270.00" speed="1.40" pos="4.20" edge="-gneE0" slope="0.00"/>
        <person id="0" x="70.63" y="48.78" angle="270.00" speed="1.25" pos="10.71" edge="-gneE0" slope="0.00"/>
        <person id="person_0" x="66.58" y="48.78" angle="270.00" speed="1.39" pos="14.76" edge="-gneE0" slope="0.00"/>
        <person id="3" x="-17.31" y="43.02" angle="90.00" speed="1.36" pos="8.24" edge="gneE0" slope="0.00"/>
        <person id="1" x="-16.64" y="43.02" angle="90.00" speed="1.24" pos="8.91" edge="gneE0" slope="0.00"/>
        <person id="2" x="71.51" y="45.58" angle="270.00" speed="1.48" pos="97.06" edge="gneE0" slope="0.00"/>
        <person id="5" x="76.27" y="45.58" angle="270.00" speed="1.00" pos="101.82" edge="gneE0" slope="0.00"/>
        <person id="8" x="80.31" y="45.58" angle="270.00" speed="1.03" pos="105.86" edge="gneE0" slope="0.00"/>
    </timestep>
    <timestep time="12.00">
        <person id="10" x="81.34" y="48.78" angle="270.00" speed="0.00" pos="0.00" edge="-gneE0" slope="0.00"/>
        <person id="11" x="81.34" y="46.22" angle="90.00" speed="0.00" pos="0.00" edge="-gneE0" slope="0.00"/>
        <person id="6" x="75.89" y="48.78" angle="270.00" speed="1.25" pos="5.45" edge="-gneE0" slope="0.00"/>
        <person id="0" x="69.48" y="48.78" angle="270.00" speed="1.15" pos="11.86" edge="-gneE0" slope="0.00"/>
        <person id="person_0" x="65.32" y="48.78" angle="270.00" speed="1.26" pos="16.02" edge="-gneE0" slope="0.00"/>
        <person id="3" x="-16.24" y="43.02" angle="90.00" speed="1.07" pos="9.31" edge="gneE0" slope="0.00"/>
        <person id="1" x="-15.50" y="43.02" angle="90.00" speed="1.14" pos="10.05" edge="gneE0" slope="0.00"/>
        <person id="2" x="70.10" y="45.58" angle="270.00" speed="1.41" pos="95.65" edge="gneE0" slope="0.00"/>
        <person id="5" x="75.23" y="45.58" angle="270.00" speed="1.04" pos="100.78" edge="gneE0" slope="0.00"/>
        <person id="8" x="79.22" y="45.58" angle="270.00" speed="1.09" pos="104.77" edge="gneE0" slope="0.00"/>
    </timestep>
    <timestep time="13.00">
        <person id="10" x="80.20" y="48.78" angle="270.00" speed="1.14" pos="1.14" edge="-gneE0" slope="0.00"/>
        <person id="6" x="74.49" y="48.78" angle="270.00" speed="1.40" pos="6.85" edge="-gneE0" slope="0.00"/>
        <person id="0" x="68.43" y="48.78" angle="270.00" speed="1.05" pos="12.91" edge="-gneE0" slope="0.00"/>
        <person id="person_0" x="63.89" y="48.78" angle="270.00" speed="1.42" pos="17.45" edge="-gneE0" slope="0.00"/>
        <person id="3" x="-14.82" y="43.02" angle="90.00" speed="1.42" pos="10.73" edge="gneE0" slope="0.00"/>
        <person id="1" x="-14.14" y="43.02" angle="90.00" speed="1.36" pos="11.41" edge="gneE0" slope="0.00"/>
        <person id="2" x="68.76" y="45.58" angle="270.00" speed="1.34" pos="94.31" edge="gneE0" slope="0.00"/>
        <person id="5" x="74.29" y="45.58" angle="270.00" speed="0.94" pos="99.84" edge="gneE0" slope="0.00"/>
        <person id="8" x="78.01" y="45.58" angle="270.00" speed="1.21" pos="103.56" edge="gneE0" slope="0.00"/>
        <person id="11" x="80.22" y="45.58" angle="270.00" speed="1.12" pos="105.77" edge="gneE0" slope="0.00"/>
    </timestep>
    <timestep time="14.00">
        <person id="13" x="81.34" y="46.22" angle="90.00" speed="0.00" pos="0.00" edge="-gneE0" slope="0.00"/>
        <person id="10" x="78.99" y="48.78" angle="270.00" speed="1.21" pos="2.35" edge="-gneE0" slope="0.00"/>
        <person id="6" x="73.12" y="48.78" angle="270.00" speed="1.36" pos="8.22" edge="-gneE0" slope="0.00"/>
        <person id="0" x="67.38" y="48.78" angle="270.00" speed="1.04" pos="13.96" edge="-gneE0" slope="0.00"/>
        <person id="person_0" x="62.47" y="48.78" angle="270.00" speed="1.42" pos="18.87" edge="-gneE0" slope="0.00"/>
        <person id="3" x="-13.55" y="43.02" angle="90.00" speed="1.27" pos="12.00" edge="gneE0" slope="0.00"/>
        <person id="1" x="-12.76" y="43.02" angle="90.00" speed="1.38" pos="12.79" edge="gneE0" slope="0.00"/>
        <person id="2" x="67.32" y="45.58" angle="270.00" speed="1.44" pos="92.87" edge="gneE0" slope="0.00"/>
        <person id="5" x="73.18" y="45.58" angle="270.00" speed="1.11" pos="98.73" edge="gneE0" slope="0.00"/>
        <person id="8" x="76.79" y="45.58" angle="270.00" speed="1.22" pos="102.34" edge="gneE0" slope="0.00"/>
        <person id="11" x="79.05" y="45.58" angle="270.00" speed="1.17" pos="104.60" edge="gneE0" slope="0.00"/>
    </timestep>
    <timestep time="15.00">
        <person id="10" x="77.74" y="48.78" angle="270.00" speed="1.25" pos="3.60" edge="-gneE0" slope="0.00"/>
        <person id="6" x="71.76" y="48.78" angle="270.00" speed="1.37" pos="9.58" edge="-gneE0" slope="0.00"/>
        <person id="0" x="66.17" y="48.78" angle="270.00" speed="1.21" pos="15.17" edge="-gneE0" slope="0.00"/>
        <person id="person_0" x="61.21" y="48.78" angle="270.00" speed="1.26" pos="20.13" edge="-gneE0" slope="0.00"/>
        <person id="3" x="-12.24" y="43.02" angle="90.00" speed="1.31" pos="13.31" edge="gneE0" slope="0.00"/>
        <person id="1" x="-11.55" y="43.02" angle="90.00" speed="1.21" pos="14.00" edge="gneE0" slope="0.00"/>
        <person id="2" x="65.94" y="45.58" angle="270.00" speed="1.39" pos="91.49" edge="gneE0" slope="0.00"/>
        <person id="5" x="72.14" y="45.58" angle="270.00" speed="1.04" pos="97.69" edge="gneE0" slope="0.00"/>
        <person id="8" x="75.76" y="45.58" angle="270.00" speed="1.03" pos="101.31" edge="gneE0" slope="0.00"/>
        <person id="11" x="77.99" y="45.58" angle="270.00" speed="1.05" pos="103.54" edge="gneE0" slope="0.00"/>
        <person id="13" x="80.01" y="45.58" angle="270.00" speed="1.33" pos="105.56" edge="gneE0" slope="0.00"/>
    </timestep>
    <timestep time="16.00">
        <person id="10" x="76.45" y="48.78" angle="270.00" speed="1.30" pos="4.89" edge="-gneE0" slope="0.00"/>
        <person id="6" x="70.59" y="48.78" angle="270.00" speed="1.17" pos="10.75" edge="-gneE0" slope="0.00"/>
        <person id="0" x="64.96" y="48.78" angle="270.00" speed="1.21" pos="16.38" edge="-gneE0" slope="0.00"/>
        <person id="person_0" x="59.86" y="48.78" angle="270.00" speed="1.35" pos="21.48" edge="-gneE0" slope="0.00"/>
        <person id="3" x="-10.84" y="43.02" angle="90.00" speed="1.40" pos="14.71" edge="gneE0" slope="0.00"/>
        <person id="1" x="-10.23" y="43.02" angle="90.00" speed="1.32" pos="15.32" edge="gneE0" slope="0.00"/>
        <person id="2" x="64.70" y="45.58" angle="270.00" speed="1.24" pos="90.25" edge="gneE0" slope="0.00"/>
        <person id="5" x="71.13" y="45.58" angle="270.00" speed="1.01" pos="96.68" edge="gneE0" slope="0.00"/>
        <person id="8" x="74.76" y="45.58" angle="270.00" speed="1.00" pos="100.31" edge="gneE0" slope="0.00"/>
        <person id="11" x="76.92" y="45.58" angle="270.00" speed="1.07" pos="102.47" edge="gneE0" slope="0.00"/>
        <person id="13" x="78.63" y="45.58" angle="270.00" speed="1.39" pos="104.18" edge="gneE0" slope="0.00"/>
    </timestep>
    <timestep time="17.00">
        <person id="10" x="75.29" y="48.78" angle="270.00" speed="1.15" pos="6.05" edge="-gneE0" slope="0.00"/>
        <person id="6" x="69.39" y="48.78" angle="270.00" speed="1.20" pos="11.95" edge="-gneE0" slope="0.00"/>
        <person id="0" x="63.78" y="48.78" angle="270.00" speed="1.18" pos="17.56" edge="-gneE0" slope="0.00"/>
        <person id="person_0" x="58.60" y="48.78" angle="270.00" speed="1.26" pos="22.74" edge="-gneE0" slope="0.00"/>
        <person id="14" x="-25.55" y="45.58" angle="270.00" speed="0.00" pos="0.00" edge="gneE0" slope="0.00"/>
        <person id="3" x="-9.65" y="43.02" angle="90.00" speed="1.19" pos="15.90" edge="gneE0" slope="0.00"/>
        <person id="1" x="-9.10" y="43.02" angle="90.00" speed="1.13" pos="16.45" edge="gneE0" slope="0.00"/>
        <person id="2" x="63.32" y="45.58" angle="270.00" speed="1.38" pos="88.87" edge="gneE0" slope="0.00"/>
        <person id="5" x="70.05" y="45.58" angle="270.00" speed="1.08" pos="95.60" edge="gneE0" slope="0.00"/>
        <person id="8" x="73.70" y="45.58" angle="270.00" speed="1.06" pos="99.25" edge="gneE0" slope="0.00"/>
        <person id="11" x="75.76" y="45.58" angle="270.00" speed="1.17" pos="101.31" edge="gneE0" slope="0.00"/>
        <person id="13" x="77.25" y="45.58" angle="270.00" speed="1.37" pos="102.80" edge="gneE0" slope="0.00"/>
    </timestep>
    <timestep time="18.00">
        <person id="10" x="74.18" y="48.78" angle="270.00" speed="1.12" pos="7.16" edge="-gneE0" slope="0.00"/>
        <person id="6" x="68.02" y="48.78" angle="270.00" speed="1.37" pos="13.32" edge="-gneE0" slope="0.00"/>
        <person id="0" x="62.68" y="48.78" angle="270.00" speed="1.10" pos="18.66" edge="-gneE0" slope="0.00"/>
        <person id="person_0" x="57.32" y="48.78" angle="270.00" speed="1.28" pos="24.02" edge="-gneE0" slope="0.00"/>
        <person id="3" x="-8.42" y="43.02" angle="90.00" speed="1.23" pos="17.13" edge="gneE0" slope="0.00"/>
        <person id="1" x="-7.73" y="43.02" angle="90.00" speed="1.37" pos="17.82" edge="gneE0" slope="0.00"/>
        <person id="2" x="62.08" y="45.58" angle="270.00" speed="1.24" pos="87.63" edge="gneE0" slope="0.00"/>
        <person id="5" x="68.99" y="45.58" angle="270.00" speed="1.07" pos="94.54" edge="gneE0" slope="0.00"/>
        <person id="8" x="72.59" y="45.58" angle="270.00" speed="1.11" pos="98.14" edge="gneE0" slope="0.00"/>
        <person id="11" x="74.58" y="45.58" angle="270.00" speed="1.18" pos="100.13" edge="gneE0" slope="0.00"/>
        <person id="13" x="75.86" y="45.58" angle="270.00" speed="1.40" pos="101.41" edge="gneE0" slope="0.00"/>
        <person id="14" x="-27.39" y="51.98" angle="359.55" speed="1.39" pos="1.39" edge="gneE2" slope="0.00"/>
    </timestep>
    <timestep time="19.00">
        <person id="10" x="72.91" y="48.78" angle="270.00" speed="1.26" pos="8.43" edge="-gneE0" slope="0.00"/>
        <person id="6" x="66.81" y="48.78" angle="270.00" speed="1.21" pos="14.53" edge="-gneE0" slope="0.00"/>
        <person id="0" x="61.63" y="48.78" angle="270.00" speed="1.05" pos="19.71" edge="-gneE0" slope="0.00"/>
        <person id="person_0" x="56.05" y="48.78" angle="270.00" speed="1.27" pos="25.29" edge="-gneE0" slope="0.00"/>
        <person id="15" x="-25.55" y="45.58" angle="270.00" speed="0.00" pos="0.00" edge="gneE0" slope="0.00"/>
        <person id="3" x="-7.15" y="43.02" angle="90.00" speed="1.28" pos="18.40" edge="gneE0" slope="0.00"/>
        <person id="1" x="-6.58" y="43.02" angle="90.00" speed="1.15" pos="18.97" edge="gneE0" slope="0.00"/>
        <person id="2" x="60.70" y="45.58" angle="270.00" speed="1.37" pos="86.25" edge="gneE0" slope="0.00"/>
        <person id="5" x="67.97" y="45.58" angle="270.00" speed="1.02" pos="93.52" edge="gneE0" slope="0.00"/>
        <person id="8" x="71.42" y="45.58" angle="270.00" speed="1.16" pos="96.97" edge="gneE0" slope="0.00"/>
        <person id="11" x="73.48" y="45.58" angle="270.00" speed="1.10" pos="99.03" edge="gneE0" slope="0.00"/>
        <person id="13" x="74.55" y="45.58" angle="270.00" speed="1.31" pos="100.10" edge="gneE0" slope="0.00"/>
        <person id="14" x="-27.40" y="53.21" angle="359.55" speed="1.24" pos="2.62" edge="gneE2" slope="0.00"/>
    </timestep>
    <timestep time="20.00">
        <person id="10" x="71.83" y="48.78" angle="270.00" speed="1.08" pos="9.51" edge="-gneE0" slope="0.00"/>
        <person id="6" x="65.39" y="48.78" angle="270.00" speed="1.42" pos="15.95" edge="-gneE0" slope="0.00"/>
        <person id="0" x="60.48" y="48.78" angle="270.00" speed="1.15" pos="20.86" edge="-gneE0" slope="0.00"/>
        <person id="person_0" x="54.75" y="48.78" angle="270.00" speed="1.30" pos="26.59" edge="-gneE0" slope="0.00"/>
        <person id="3" x="-6.06" y="43.02" angle="90.00" speed="1.09" pos="19.49" edge="gneE0" slope="0.00"/>
        <person id="1" x="-5.36" y="43.02" angle="90.00" speed="1.22" pos="20.19" edge="gneE0" slope="0.00"/>
        <person id="2" x="59.20" y="45.58" angle="270.00" speed="1.50" pos="84.75" edge="gneE0" slope="0.00"/>
        <person id="5" x="67.04" y="45.58" angle="270.00" speed="0.93" pos="92.59" edge="gneE0" slope="0.00"/>
        <person id="8" x="70.41" y="45.58" angle="270.00" speed="1.01" pos="95.96" edge="gneE0" slope="0.00"/>
        <person id="11" x="72.40" y="45.58" angle="270.00" speed="1.08" pos="97.95" edge="gneE0" slope="0.00"/>
        <person id="13" x="73.31" y="45.58" angle="270.00" speed="1.24" pos="98.86" edge="gneE0" slope="0.00"/>
        <person id="15" x="-27.39" y="51.88" angle="359.55" speed="1.29" pos="1.29" edge="gneE2" slope="0.00"/>
        <person id="14" x="-27.41" y="54.37" angle="359.55" speed="1.16" pos="3.78" edge="gneE2" slope="0.00"/>
    </timestep>
    <timestep time="21.00">
        <person id="10" x="70.65" y="48.78" angle="270.00" speed="1.18" pos="10.69" edge="-gneE0" slope="0.00"/>
        <person id="6" x="64.17" y="48.78" angle="270.00" speed="1.22" pos="17.17" edge="-gneE0" slope="0.00"/>
        <person id="0" x="59.26" y="48.78" angle="270.00" speed="1.21" pos="22.08" edge="-gneE0" slope="0.00"/>
        <person id="person_0" x="53.33" y="48.78" angle="270.00" speed="1.42" pos="28.01" edge="-gneE0" slope="0.00"/>
        <person id="3" x="-4.63" y="43.02" angle="90.00" speed="1.43" pos="20.92" edge="gneE0" slope="0.00"/>
        <person id="1" x="-4.05" y="43.02" angle="90.00" speed="1.31" pos="21.50" edge="gneE0" slope="0.00"/>
        <person id="2" x="57.70" y="45.58" angle="270.00" speed="1.50" pos="83.25" edge="gneE0" slope="0.00"/>
        <person id="5" x="66.00" y="45.58" angle="270.00" speed="1.04" pos="91.55" edge="gneE0" slope="0.00"/>
        <person id="8" x="69.41" y="45.58" angle="270.00" speed="1.01" pos="94.96" edge="gneE0" slope="0.00"/>
        <person id="11" x="71.31" y="45.58" angle="270.00" speed="1.09" pos="96.86" edge="gneE0" slope="0.00"/>
        <person id="13" x="71.83" y="45.58" angle="270.00" speed="1.48" pos="97.38" edge="gneE0" slope="0.00"/>
        <person id="15" x="-27.40" y="53.07" angle="359.55" speed="1.19" pos="2.48" edge="gneE2" slope="0.00"/>
        <person id="14" x="-27.42" y="55.61" angle="359.55" speed="1.24" pos="5.02" edge="gneE2" slope="0.00"/>
    </timestep>
    <timestep time="22.00">
        <person id="10" x="69.61" y="48.78" angle="270.00" speed="1.04" pos="11.73" edge="-gneE0" slope="0.00"/>
        <person id="6" x="62.83" y="48.78" angle="270.00" speed="1.34" pos="18.51" edge="-gneE0" slope="0.00"/>
        <person id="0" x="58.17" y="48.78" angle="270.00" speed="1.09" pos="23.17" edge="-gneE0" slope="0.00"/>
        <person id="person_0" x="52.11" y="48.78" angle="270.00" speed="1.22" pos="29.23" edge="-gneE0" slope="0.00"/>
        <person id="3" x="-3.52" y="43.02" angle="90.00" speed="1.11" pos="22.03" edge="gneE0" slope="0.00"/>
        <person id="1" x="-2.78" y="43.02" angle="90.00" speed="1.27" pos="22.77" edge="gneE0" slope="0.00"/>
        <person id="2" x="56.45" y="45.58" angle="270.00" speed="1.25" pos="82.00" edge="gneE0" slope="0.00"/>
        <person id="5" x="64.92" y="45.58" angle="270.00" speed="1.08" pos="90.47" edge="gneE0" slope="0.00"/>
        <person id="8" x="68.23" y="45.58" angle="270.00" speed="1.18" pos="93.78" edge="gneE0" slope="0.00"/>
        <person id="11" x="70.15" y="45.58" angle="270.00" speed="1.15" pos="95.70" edge="gneE0" slope="0.00"/>
        <person id="13" x="70.76" y="45.58" angle="270.00" speed="1.07" pos="96.31" edge="gneE0" slope="0.00"/>
        <person id="15" x="-27.41" y="54.39" angle="359.55" speed="1.32" pos="3.80" edge="gneE2" slope="0.00"/>
        <person id="14" x="-27.43" y="56.81" angle="359.55" speed="1.20" pos="6.22" edge="gneE2" slope="0.00"/>
    </timestep>
    <timestep time="23.00">
        <person id="10" x="68.40" y="48.78" angle="270.00" speed="1.21" pos="12.94" edge="-gneE0" slope="0.00"/>
        <person id="6" x="61.51" y="48.78" angle="270.00" speed="1.32" pos="19.83" edge="-gneE0" slope="0.00"/>
        <person id="0" x="57.06" y="48.78" angle="270.00" speed="1.11" pos="24.28" edge="-gneE0" slope="0.00"/>
        <person id="person_0" x="50.73" y="48.78" angle="270.00" speed="1.38" pos="30.61" edge="-gneE0" slope="0.00"/>
        <person id="18" x="-25.55" y="45.58" angle="270.00" speed="0.00" pos="0.00" edge="gneE0" slope="0.00"/>
        <person id="3" x="-2.13" y="43.02" angle="90.00" speed="1.39" pos="23.42" edge="gneE0" slope="0.00"/>
        <person id="1" x="-1.61" y="43.02" angle="90.00" speed="1.18" pos="23.94" edge="gneE0" slope="0.00"/>
        <person id="2" x="55.19" y="45.58" angle="270.00" speed="1.27" pos="80.74" edge="gneE0" slope="0.00"/>
        <person id="5" x="63.79" y="45.58" angle="270.00" speed="1.13" pos="89.34" edge="gneE0" slope="0.00"/>
        <person id="8" x="67.02" y="45.58" angle="270.00" speed="1.21" pos="92.57" edge="gneE0" slope="0.00"/>
        <person id="11" x="69.02" y="45.58" angle="270.00" speed="1.14" pos="94.57" edge="gneE0" slope="0.00"/>
        <person id="13" x="69.55" y="45.58" angle="270.00" speed="1.20" pos="95.10" edge="gneE0" slope="0.00"/>
        <person id="15" x="-27.42" y="55.81" angle="359.55" speed="1.42" pos="5.22" edge="gneE2" slope="0.00"/>
        <person id="14" x="-27.44" y="58.07" angle="359.55" speed="1.26" pos="7.48" edge="gneE2" slope="0.00"/>
    </timestep>
    <timestep time="24.00">
        <person id="10" x="67.17" y="48.78" angle="270.00" speed="1.24" pos="14.17" edge="-gneE0" slope="0.00"/>
        <person id="6" x="60.15" y="48.78" angle="270.00" speed="1.36" pos="21.19" edge="-gneE0" slope="0.00"/>
        <person id="0" x="56.00" y="48.78" angle="270.00" speed="1.06" pos="25.34" edge="-gneE0" slope="0.00"/>
        <person id="person_0" x="49.32" y="48.78" angle="270.00" speed="1.41" pos="32.02" edge="-gneE0" slope="0.00"/>
        <person id="18" x="-24.28" y="46.22" angle="90.00" speed="1.27" pos="105.62" edge="-gneE0" slope="0.00"/>
        <person id="19" x="-25.55" y="45.58" angle="270.00" speed="0.00" pos="0.00" edge="gneE0" slope="0.00"/>
        <person id="3" x="-1.04" y="43.02" angle="90.00" speed="1.09" pos="24.51" edge="gneE0" slope="0.00"/>
        <person id="1" x="-0.44" y="43.02" angle="90.00" speed="1.16" pos="25.11" edge="gneE0" slope="0.00"/>
        <person id="2" x="53.75" y="45.58" angle="270.00" speed="1.44" pos="79.30" edge="gneE0" slope="0.00"/>
        <person id="5" x="62.85" y="45.58" angle="270.00" speed="0.94" pos="88.40" edge="gneE0" slope="0.00"/>
        <person id="8" x="65.93" y="45.58" angle="270.00" speed="1.09" pos="91.48" edge="gneE0" slope="0.00"/>
        <person id="11" x="68.02" y="45.58" angle="270.00" speed="1.00" pos="93.57" edge="gneE0" slope="0.00"/>
        <person id="13" x="68.60" y="45.58" angle="270.00" speed="0.95" pos="94.15" edge="gneE0" slope="0.00"/>
        <person id="15" x="-27.43" y="57.19" angle="359.55" speed="1.38" pos="6.60" edge="gneE2" slope="0.00"/>
        <person id="14" x="-27.45" y="59.44" angle="359.55" speed="1.37" pos="8.85" edge="gneE2" slope="0.00"/>
    </timestep>
    <timestep time="25.00">
        <person id="10" x="66.06" y="48.78" angle="270.00" speed="1.11" pos="15.28" edge="-gneE0" slope="0.00"/>
        <person id="6" x="58.70" y="48.78" angle="270.00" speed="1.44" pos="22.64" edge="-gneE0" slope="0.00"/>
        <person id="0" x="54.84" y="48.78" angle="270.00" speed="1.15" pos="26.50" edge="-gneE0" slope="0.00"/>
        <person id="person_0" x="47.87" y="48.78" angle="270.00" speed="1.45" pos="33.47" edge="-gneE0" slope="0.00"/>
        <person id="18" x="-22.73" y="46.22" angle="90.00" speed="1.56" pos="104.07" edge="-gneE0" slope="0.00"/>
        <person id="19" x="-24.34" y="46.22" angle="90.00" speed="1.21" pos="105.68" edge="-gneE0" slope="0.00"/>
        <person id="3" x="0.10" y="43.02" angle="90.00" speed="1.14" pos="25.65" edge="gneE0" slope="0.00"/>
        <person id="1" x="0.75" y="43.02" angle="90.00" speed="1.20" pos="26.30" edge="gneE0" slope="0.00"/>
        <person id="2" x="52.27" y="45.58" angle="270.00" speed="1.48" pos="77.82" edge="gneE0" slope="0.00"/>
        <person id="5" x="61.80" y="45.58" angle="270.00" speed="1.05" pos="87.35" edge="gneE0" slope="0.00"/>
        <person id="8" x="64.89" y="45.58" angle="270.00" speed="1.04" pos="90.44" edge="gneE0" slope="0.00"/>
        <person id="11" x="67.00" y="45.58" angle="270.00" speed="1.01" pos="92.55" edge="gneE0" slope="0.00"/>
        <person id="13" x="67.65" y="45.58" angle="270.00" speed="0.95" pos="93.20" edge="gneE0" slope="0.00"/>
        <person id="20" x="-29.94" y="50.57" angle="179.55" speed="0.00" pos="0.00" edge="gneE2" slope="0.00"/>
        <person id="15" x="-27.44" y="58.51" angle="359.55" speed="1.32" pos="7.92" edge="gneE2" slope="0.00"/>
        <person id="14" x="-27.46" y="60.83" angle="359.55" speed="1.39" pos="10.24" edge="gneE2" slope="0.00"/>
    </timestep>
    <timestep time="26.00">
        <person id="10" x="64.79" y="48.78" angle="270.00" speed="1.27" pos="16.55" edge="-gneE0" slope="0.00"/>
        <person id="6" x="57.37" y="48.78" angle="270.00" speed="1.34" pos="23.97" edge="-gneE0" slope="0.00"/>
        <person id="0" x="53.79" y="48.78" angle="270.00" speed="1.05" pos="27.55" edge="-gneE0" slope="0.00"/>
        <person id="person_0" x="46.45" y="48.78" angle="270.00" speed="1.42" pos="34.89" edge="-gneE0" slope="0.00"/>
        <person id="18" x="-21.34" y="46.22" angle="90.00" speed="1.39" pos="102.68" edge="-gneE0" slope="0.00"/>
        <person id="19" x="-23.22" y="46.22" angle="90.00" speed="1.12" pos="104.56" edge="-gneE0" slope="0.00"/>
        <person id="20" x="-24.35" y="43.02" angle="90.00" speed="1.20" pos="1.20" edge="gneE0" slope="0.00"/>
        <person id="3" x="1.53" y="43.02" angle="90.00" speed="1.43" pos="27.08" edge="gneE0" slope="0.00"/>
        <person id="1" x="2.01" y="43.02" angle="90.00" speed="1.26" pos="27.56" edge="gneE0" slope="0.00"/>
        <person id="2" x="51.04" y="45.58" angle="270.00" speed="1.23" pos="76.59" edge="gneE0" slope="0.00"/>
        <person id="5" x="60.69" y="45.58" angle="270.00" speed="1.10" pos="86.24" edge="gneE0" slope="0.00"/>
        <person id="8" x="63.89" y="45.58" angle="270.00" speed="1.01" pos="89.44" edge="gneE0" slope="0.00"/>
        <person id="11" x="65.87" y="45.58" angle="270.00" speed="1.14" pos="91.42" edge="gneE0" slope="0.00"/>
        <person id="13" x="66.39" y="45.58" angle="270.00" speed="1.26" pos="91.94" edge="gneE0" slope="0.00"/>
        <person id="15" x="-27.45" y="59.90" angle="359.55" speed="1.39" pos="9.31" edge="gneE2" slope="0.00"/>
        <person id="14" x="-27.47" y="62.09" angle="359.55" speed="1.26" pos="11.50" edge="gneE2" slope="0.00"/>
    </timestep>
    <timestep time="27.00">
        <person id="10" x="63.68" y="48.78" angle="270.00" speed="1.10" pos="17.66" edge="-gneE0" slope="0.00"/>
        <person id="6" x="56.00" y="48.78" angle="270.00" speed="1.36" pos="25.34" edge="-gneE0" slope="0.00"/>