<?xml version="1.0" encoding="UTF-8"?>

<!-- generated on Thu Apr  6 18:38:59 2023 by Eclipse SUMO sumo Version 1.8.0
<configuration xmlns:xsi="http://www.w3.org/2001/XMLSchema-instance" xsi:noNamespaceSchemaLocation="http://sumo.dlr.de/xsd/sumoConfiguration.xsd">

    <input>
        <net-file value="osm.net.xml.gz"/>
        <route-files value="peds.rou.xml"/>
        <additional-files value="osm.poly.xml.gz"/>
    </input>

    <output>
        <fcd-output value="fcd_dump2.xml"/>
    </output>

    <time>
        <begin value="0"/>
        <end value="100"/>
    </time>

    <processing>
        <ignore-route-errors value="true"/>
    </processing>

    <report>
        <verbose value="true"/>
        <duration-log.statistics value="true"/>
        <no-step-log value="true"/>
    </report>

    <gui_only>
        <gui-settings-file value="osm.view.xml"/>
    </gui_only>

</configuration>
-->

<fcd-export xmlns:xsi="http://www.w3.org/2001/XMLSchema-instance" xsi:noNamespaceSchemaLocation="http://sumo.dlr.de/xsd/fcd_file.xsd">
    <timestep time="0.00"/>
    <timestep time="1.00">
        <person id="0" x="120.92" y="190.93" angle="12.83" speed="0.00" pos="0.00" edge="28709110" slope="0.00"/>
    </timestep>
    <timestep time="2.00">
        <person id="0" x="125.56" y="207.05" angle="8.42" speed="1.21" pos="1.21" edge="-191959706#1" slope="0.00"/>
    </timestep>
    <timestep time="3.00">
        <person id="0" x="125.75" y="208.30" angle="8.42" speed="1.26" pos="2.47" edge="-191959706#1" slope="0.00"/>
        <person id="1" x="409.99" y="258.01" angle="14.88" speed="0.00" pos="0.00" edge="998769532" slope="0.00"/>
    </timestep>
    <timestep time="4.00">
        <person id="0" x="125.96" y="209.74" angle="8.42" speed="1.46" pos="3.93" edge="-191959706#1" slope="0.00"/>
        <person id="2" x="268.84" y="417.66" angle="27.52" speed="0.00" pos="0.00" edge="28709107#0" slope="0.00"/>
        <person id="3" x="257.18" y="669.57" angle="249.43" speed="0.00" pos="0.00" edge="28710934" slope="0.00"/>
        <person id="1" x="411.59" y="264.02" angle="14.86" speed="1.18" pos="21.35" edge="998769540#1" slope="0.00"/>
    </timestep>
    <timestep time="5.00">
        <person id="0" x="126.15" y="211.02" angle="8.42" speed="1.30" pos="5.23" edge="-191959706#1" slope="0.00"/>
        <person id="4" x="322.72" y="566.58" angle="300.16" speed="0.00" pos="0.00" edge="191871225#0" slope="0.00"/>
        <person id="2" x="262.04" y="432.16" angle="295.41" speed="1.19" pos="1.19" edge="191979121" slope="0.00"/>
        <person id="3" x="255.78" y="669.04" angle="249.43" speed="1.49" pos="1.49" edge="28710934" slope="0.00"/>
        <person id="1" x="411.91" y="265.22" angle="14.86" speed="1.24" pos="20.12" edge="998769540#1" slope="0.00"/>
    </timestep>
    <timestep time="6.00">
        <person id="0" x="126.34" y="212.32" angle="8.42" speed="1.31" pos="6.54" edge="-191959706#1" slope="0.00"/>
        <person id="5" x="457.64" y="208.19" angle="31.99" speed="0.00" pos="0.00" edge="-28718922#1" slope="0.00"/>
        <person id="2" x="260.96" y="432.67" angle="295.41" speed="1.19" pos="2.39" edge="191979121" slope="0.00"/>
        <person id="4" x="312.40" y="563.39" angle="213.47" speed="1.24" pos="1.24" edge="193099645#1" slope="0.00"/>
        <person id="3" x="254.38" y="668.52" angle="249.43" speed="1.50" pos="2.99" edge="28710934" slope="0.00"/>
        <person id="1" x="412.21" y="266.36" angle="14.86" speed="1.18" pos="18.93" edge="998769540#1" slope="0.00"/>
    </timestep>
    <timestep time="7.00">
        <person id="0" x="126.54" y="213.65" angle="8.42" speed="1.34" pos="7.88" edge="-191959706#1" slope="0.00"/>
        <person id="5" x="458.18" y="209.06" angle="31.99" speed="1.02" pos="1.02" edge="-28718922#1" slope="0.00"/>
        <person id="6" x="749.88" y="329.06" angle="212.82" speed="0.00" pos="0.00" edge="184427426#1" slope="0.00"/>
        <person id="2" x="259.76" y="433.24" angle="295.41" speed="1.33" pos="3.72" edge="191979121" slope="0.00"/>
        <person id="4" x="311.62" y="562.21" angle="213.47" speed="1.41" pos="2.65" edge="193099645#1" slope="0.00"/>
        <person id="3" x="253.22" y="668.08" angle="249.43" speed="1.24" pos="4.23" edge="28710934" slope="0.00"/>
        <person id="1" x="412.52" y="267.54" angle="14.86" speed="1.22" pos="17.72" edge="998769540#1" slope="0.00"/>
    </timestep>
    <timestep time="8.00">
        <person id="0" x="126.73" y="214.90" angle="8.42" speed="1.27" pos="9.15" edge="-191959706#1" slope="0.00"/>
        <person id="5" x="458.78" y="210.03" angle="31.99" speed="1.14" pos="2.17" edge="-28718922#1" slope="0.00"/>
        <person id="6" x="749.18" y="327.97" angle="212.82" speed="1.30" pos="1.30" edge="184427426#1" slope="0.00"/>
        <person id="2" x="258.57" y="433.81" angle="295.41" speed="1.32" pos="5.04" edge="191979121" slope="0.00"/>
        <person id="4" x="310.93" y="561.17" angle="213.47" speed="1.25" pos="3.90" edge="193099645#1" slope="0.00"/>
        <person id="3" x="252.07" y="667.65" angle="249.43" speed="1.22" pos="5.45" edge="28710934" slope="0.00"/>
        <person id="7" x="603.30" y="438.34" angle="13.03" speed="0.00" pos="0.00" edge="545476129#5" slope="0.00"/>
        <person id="1" x="412.80" y="268.59" angle="14.86" speed="1.09" pos="16.63" edge="998769540#1" slope="0.00"/>
    </timestep>
    <timestep time="9.00">
        <person id="0" x="126.90" y="216.10" angle="8.42" speed="1.21" pos="10.36" edge="-191959706#1" slope="0.00"/>
        <person id="5" x="459.35" y="210.93" angle="31.99" speed="1.06" pos="3.23" edge="-28718922#1" slope="0.00"/>
        <person id="6" x="748.48" y="326.88" angle="212.82" speed="1.29" pos="2.60" edge="184427426#1" slope="0.00"/>
        <person id="2" x="257.36" y="434.38" angle="295.41" speed="1.34" pos="6.37" edge="191979121" slope="0.00"/>
        <person id="4" x="310.15" y="559.99" angle="213.47" speed="1.42" pos="5.32" edge="193099645#1" slope="0.00"/>
        <person id="3" x="250.75" y="667.16" angle="249.43" speed="1.41" pos="6.87" edge="28710934" slope="0.00"/>
        <person id="7" x="600.13" y="443.47" angle="297.02" speed="1.04" pos="1.04" edge="484335723#1" slope="0.00"/>
        <person id="1" x="413.13" y="269.81" angle="14.86" speed="1.26" pos="15.37" edge="998769540#1" slope="0.00"/>
    </timestep>
    <timestep time="10.00">
        <person id="0" x="127.08" y="217.28" angle="8.42" speed="1.19" pos="11.55" edge="-191959706#1" slope="0.00"/>
        <person id="5" x="459.95" y="211.90" angle="31.99" speed="1.15" pos="4.38" edge="-28718922#1" slope="0.00"/>
        <person id="6" x="747.80" y="325.83" angle="212.82" speed="1.25" pos="3.85" edge="184427426#1" slope="0.00"/>
        <person id="2" x="256.18" y="434.94" angle="295.41" speed="1.31" pos="7.68" edge="191979121" slope="0.00"/>
        <person id="4" x="309.38" y="558.82" angle="213.47" speed="1.39" pos="6.72" edge="193099645#1" slope="0.00"/>
        <person id="3" x="249.38" y="666.64" angle="249.43" speed="1.47" pos="8.33" edge="28710934" slope="0.00"/>
        <person id="7" x="599.13" y="443.98" angle="297.02" speed="1.13" pos="2.17" edge="484335723#1" slope="0.00"/>
        <person id="8" x="107.20" y="422.98" angle="200.60" speed="0.00" pos="0.00" edge="995252087#1" slope="0.00"/>
        <person id="1" x="413.40" y="270.83" angle="14.86" speed="1.05" pos="14.31" edge="998769540#1" slope="0.00"/>
    </timestep>
    <timestep time="11.00">
        <person id="0" x="127.28" y="218.66" angle="8.42" speed="1.39" pos="12.95" edge="-191959706#1" slope="0.00"/>
        <person id="5" x="460.54" y="212.84" angle="31.99" speed="1.10" pos="5.48" edge="-28718922#1" slope="0.00"/>
        <person id="9" x="648.37" y="516.58" angle="294.36" speed="0.00" pos="0.00" edge="-32062050#0" slope="0.00"/>
        <person id="8" x="112.47" y="416.69" angle="107.53" speed="0.02" pos="0.18" edge="167255138#1" slope="0.00"/>
        <person id="6" x="747.04" y="324.65" angle="212.82" speed="1.40" pos="5.26" edge="184427426#1" slope="0.00"/>
        <person id="2" x="255.06" y="435.48" angle="295.41" speed="1.24" pos="8.93" edge="191979121" slope="0.00"/>
        <person id="4" x="308.63" y="557.69" angle="213.47" speed="1.36" pos="8.08" edge="193099645#1" slope="0.00"/>
        <person id="3" x="248.20" y="666.20" angle="249.43" speed="1.26" pos="9.59" edge="28710934" slope="0.00"/>
        <person id="7" x="598.05" y="444.53" angle="297.02" speed="1.21" pos="3.38" edge="484335723#1" slope="0.00"/>
        <person id="1" x="413.68" y="271.91" angle="14.86" speed="1.12" pos="13.20" edge="998769540#1" slope="0.00"/>
    </timestep>
    <timestep time="12.00">
        <person id="0" x="127.47" y="219.94" angle="8.42" speed="1.30" pos="14.24" edge="-191959706#1" slope="0.00"/>
        <person id="5" x="461.07" y="213.68" angle="31.99" speed="0.99" pos="6.47" edge="-28718922#1" slope="0.00"/>
        <person id="9" x="648.10" y="515.99" angle="294.36" speed="0.00" pos="0.00" edge="-32062050#0" slope="0.00"/>
        <person id="10" x="182.93" y="140.57" angle="11.39" speed="0.00" pos="0.00" edge="-322548792#1" slope="0.00"/>
        <person id="6" x="746.40" y="323.66" angle="212.82" speed="1.18" pos="6.44" edge="184427426#1" slope="0.00"/>
        <person id="2" x="254.03" y="435.96" angle="295.41" speed="1.13" pos="10.06" edge="191979121" slope="0.00"/>
        <person id="4" x="307.89" y="556.57" angle="213.47" speed="1.34" pos="9.42" edge="193099645#1" slope="0.00"/>
        <person id="3" x="246.93" y="665.72" angle="249.43" speed="1.36" pos="10.95" edge="28710934" slope="0.00"/>
        <person id="7" x="597.08" y="445.02" angle="297.02" speed="1.09" pos="4.47" edge="484335723#1" slope="0.00"/>
        <person id="8" x="116.63" y="419.57" angle="21.68" speed="1.05" pos="68.96" edge="996022767" slope="0.00"/>
        <person id="1" x="414.00" y="273.12" angle="14.86" speed="1.26" pos="11.94" edge="998769540#1" slope="0.00"/>
    </timestep>
    <timestep time="13.00">
        <person id="0" x="127.66" y="221.21" angle="8.42" speed="1.28" pos="15.53" edge="-191959706#1" slope="0.00"/>
        <person id="5" x="461.66" y="214.63" angle="31.99" speed="1.12" pos="7.59" edge="-28718922#1" slope="0.00"/>
        <person id="6" x="745.61" y="322.44" angle="212.82" speed="1.44" pos="7.88" edge="184427426#1" slope="0.00"/>
        <person id="2" x="252.84" y="436.53" angle="295.41" speed="1.33" pos="11.38" edge="191979121" slope="0.00"/>
        <person id="4" x="307.18" y="555.50" angle="213.47" speed="1.27" pos="10.70" edge="193099645#1" slope="0.00"/>
        <person id="3" x="245.78" y="665.29" angle="249.43" speed="1.22" pos="12.17" edge="28710934" slope="0.00"/>
        <person id="10" x="190.08" y="147.53" angle="39.11" speed="1.21" pos="1.21" edge="322548792#2" slope="0.00"/>
        <person id="7" x="596.00" y="445.58" angle="297.02" speed="1.21" pos="5.68" edge="484335723#1" slope="0.00"/>
        <person id="9" x="643.31" y="512.77" angle="203.29" speed="1.15" pos="1.15" edge="655717650#0" slope="0.00"/>
        <person id="8" x="117.08" y="420.70" angle="21.68" speed="1.22" pos="67.74" edge="996022767" slope="0.00"/>
        <person id="1" x="414.32" y="274.30" angle="14.86" speed="1.21" pos="10.73" edge="998769540#1" slope="0.00"/>
    </timestep>
    <timestep time="14.00">
        <person id="0" x="127.87" y="222.64" angle="8.42" speed="1.45" pos="16.97" edge="-191959706#1" slope="0.00"/>
        <person id="5" x="462.20" y="215.50" angle="31.99" speed="1.02" pos="8.62" edge="-28718922#1" slope="0.00"/>
        <person id="6" x="744.86" y="321.27" angle="212.82" speed="1.39" pos="9.27" edge="184427426#1" slope="0.00"/>
        <person id="2" x="251.62" y="437.11" angle="295.41" speed="1.35" pos="12.74" edge="191979121" slope="0.00"/>
        <person id="4" x="306.40" y="554.32" angle="213.47" speed="1.42" pos="12.11" edge="193099645#1" slope="0.00"/>
        <person id="12" x="65.34" y="316.14" angle="202.44" speed="0.00" pos="0.00" edge="28710621#2" slope="0.00"/>
        <person id="3" x="244.40" y="664.77" angle="249.43" speed="1.48" pos="13.65" edge="28710934" slope="0.00"/>
        <person id="10" x="190.90" y="148.53" angle="39.11" speed="1.30" pos="2.51" edge="322548792#2" slope="0.00"/>
        <person id="7" x="594.98" y="446.09" angle="297.01" speed="1.14" pos="6.83" edge="484335723#1" slope="0.00"/>
        <person id="11" x="590.26" y="543.27" angle="295.68" speed="0.00" pos="0.00" edge="655717643" slope="0.00"/>
        <person id="9" x="642.86" y="511.74" angle="203.29" speed="1.12" pos="2.27" edge="655717650#0" slope="0.00"/>
        <person id="8" x="117.54" y="421.86" angle="21.68" speed="1.25" pos="66.49" edge="996022767" slope="0.00"/>
        <person id="1" x="414.60" y="275.39" angle="14.86" speed="1.13" pos="9.60" edge="998769540#1" slope="0.00"/>
    </timestep>
    <timestep time="15.00">
        <person id="0" x="128.07" y="223.97" angle="8.42" speed="1.35" pos="18.32" edge="-191959706#1" slope="0.00"/>
        <person id="5" x="462.74" y="216.36" angle="31.99" speed="1.01" pos="9.63" edge="-28718922#1" slope="0.00"/>
        <person id="6" x="744.13" y="320.15" angle="212.82" speed="1.34" pos="10.61" edge="184427426#1" slope="0.00"/>
        <person id="2" x="250.48" y="437.65" angle="295.41" speed="1.26" pos="14.00" edge="191979121" slope="0.00"/>
        <person id="4" x="305.74" y="553.32" angle="213.47" speed="1.19" pos="13.31" edge="193099645#1" slope="0.00"/>
        <person id="13" x="66.04" y="0.34" angle="344.66" speed="0.00" pos="0.00" edge="28710621#0" slope="0.00"/>
        <person id="12" x="70.08" y="304.02" angle="105.68" speed="1.45" pos="1.45" edge="28710755#0" slope="0.00"/>
        <person id="3" x="243.16" y="664.30" angle="249.43" speed="1.33" pos="14.98" edge="28710934" slope="0.00"/>
        <person id="10" x="191.77" y="149.61" angle="39.11" speed="1.39" pos="3.90" edge="322548792#2" slope="0.00"/>
        <person id="7" x="593.97" y="446.61" angle="297.01" speed="1.14" pos="7.97" edge="484335723#1" slope="0.00"/>
        <person id="15" x="340.76" y="392.21" angle="115.23" speed="0.00" pos="0.00" edge="522833719" slope="0.00"/>
        <person id="14" x="393.74" y="217.55" angle="111.98" speed="0.00" pos="0.00" edge="647789892" slope="0.00"/>
        <person id="11" x="589.99" y="542.70" angle="295.68" speed="0.00" pos="0.00" edge="655717643" slope="0.00"/>
        <person id="9" x="642.48" y="510.86" angle="203.29" speed="0.96" pos="3.23" edge="655717650#0" slope="0.00"/>
        <person id="8" x="118.01" y="423.04" angle="21.68" speed="1.28" pos="65.22" edge="996022767" slope="0.00"/>
        <person id="1" x="414.88" y="276.42" angle="14.86" speed="1.08" pos="8.53" edge="998769540#1" slope="0.00"/>
    </timestep>
    <timestep time="16.00">
        <person id="0" x="128.26" y="225.25" angle="8.42" speed="1.29" pos="19.61" edge="-191959706#1" slope="0.00"/>
        <person id="5" x="463.24" y="217.16" angle="31.99" speed="0.94" pos="10.57" edge="-28718922#1" slope="0.00"/>
        <person id="6" x="743.42" y="319.05" angle="212.82" speed="1.31" pos="11.92" edge="184427426#1" slope="0.00"/>
        <person id="16" x="723.24" y="403.09" angle="295.28" speed="0.00" pos="0.00" edge="190606073" slope="0.00"/>
        <person id="2" x="249.32" y="438.20" angle="295.41" speed="1.28" pos="15.28" edge="191979121" slope="0.00"/>
        <person id="4" x="305.07" y="552.30" angle="213.47" speed="1.23" pos="14.54" edge="193099645#1" slope="0.00"/>
        <person id="13" x="65.67" y="1.71" angle="344.66" speed="1.42" pos="1.42" edge="28710621#0" slope="0.00"/>
        <person id="12" x="71.23" y="303.69" angle="105.68" speed="1.20" pos="2.65" edge="28710755#0" slope="0.00"/>
        <person id="3" x="241.91" y="663.84" angle="249.43" speed="1.33" pos="16.31" edge="28710934" slope="0.00"/>
        <person id="10" x="192.54" y="150.56" angle="39.11" speed="1.22" pos="5.12" edge="322548792#2" slope="0.00"/>
        <person id="14" x="398.46" y="220.28" angle="24.22" speed="1.18" pos="6.40" edge="429515619#0" slope="0.00"/>
        <person id="7" x="592.93" y="447.14" angle="297.01" speed="1.16" pos="9.12" edge="484335723#1" slope="0.00"/>
        <person id="15" x="341.04" y="392.79" angle="115.23" speed="0.00" pos="0.00" edge="522833719" slope="0.00"/>
        <person id="11" x="587.11" y="538.07" angle="160.85" speed="1.40" pos="1.40" edge="655717642" slope="0.00"/>
        <person id="9" x="642.05" y="509.86" angle="203.29" speed="1.09" pos="4.32" edge="655717650#0" slope="0.00"/>
        <person id="8" x="118.45" y="424.14" angle="21.68" speed="1.18" pos="64.04" edge="996022767" slope="0.00"/>
        <person id="1" x="415.17" y="277.52" angle="14.86" speed="1.13" pos="7.39" edge="998769540#1" slope="0.00"/>
    </timestep>
    <timestep time="17.00">
        <person id="0" x="128.44" y="226.47" angle="8.42" speed="1.24" pos="20.85" edge="-191959706#1" slope="0.00"/>
        <person id="5" x="463.81" y="218.08" angle="31.99" speed="1.09" pos="11.66" edge="-28718922#1" slope="0.00"/>
        <person id="6" x="742.75" y="318.00" angle="212.82" speed="1.25" pos="13.17" edge="184427426#1" slope="0.00"/>
        <person id="2" x="248.08" y="438.79" angle="295.41" speed="1.37" pos="16.65" edge="191979121" slope="0.00"/>
        <person id="4" x="304.39" y="551.28" angle="213.47" speed="1.23" pos="15.76" edge="193099645#1" slope="0.00"/>
        <person id="17" x="375.06" y="381.25" angle="216.62" speed="0.00" pos="0.00" edge="23195501#1" slope="0.00"/>
        <person id="13" x="65.27" y="3.17" angle="344.66" speed="1.52" pos="2.93" edge="28710621#0" slope="0.00"/>
        <person id="12" x="72.39" y="303.37" angle="105.68" speed="1.20" pos="3.85" edge="28710755#0" slope="0.00"/>
        <person id="3" x="240.61" y="663.35" angle="249.43" speed="1.39" pos="17.70" edge="28710934" slope="0.00"/>
        <person id="10" x="193.41" y="151.62" angle="39.11" speed="1.37" pos="6.49" edge="322548792#2" slope="0.00"/>
        <person id="14" x="398.92" y="221.32" angle="24.22" speed="1.14" pos="5.25" edge="429515619#0" slope="0.00"/>
        <person id="7" x="591.85" y="447.69" angle="297.01" speed="1.22" pos="10.34" edge="484335723#1" slope="0.00"/>
        <person id="15" x="395.16" y="364.23" angle="122.20" speed="0.28" pos="0.04" edge="522833729#1" slope="0.00"/>
        <person id="16" x="718.49" y="410.52" angle="295.25" speed="0.98" pos="0.98" edge="539419137#1" slope="0.00"/>
        <person id="11" x="587.54" y="536.83" angle="160.85" speed="1.31" pos="2.71" edge="655717642" slope="0.00"/>
        <person id="9" x="641.64" y="508.91" angle="203.29" speed="1.03" pos="5.35" edge="655717650#0" slope="0.00"/>
        <person id="8" x="118.84" y="425.13" angle="21.68" speed="1.07" pos="62.97" edge="996022767" slope="0.00"/>
        <person id="1" x="415.48" y="278.69" angle="14.86" speed="1.21" pos="6.18" edge="998769540#1" slope="0.00"/>
    </timestep>
    <timestep time="18.00">
        <person id="0" x="128.62" y="227.74" angle="8.42" speed="1.28" pos="22.13" edge="-191959706#1" slope="0.00"/>
        <person id="5" x="464.37" y="218.97" angle="31.99" speed="1.05" pos="12.71" edge="-28718922#1" slope="0.00"/>
        <person id="6" x="742.05" y="316.92" angle="212.82" speed="1.28" pos="14.45" edge="184427426#1" slope="0.00"/>
        <person id="2" x="246.89" y="439.36" angle="295.41" speed="1.33" pos="17.97" edge="191979121" slope="0.00"/>
        <person id="4" x="303.66" y="550.17" angle="213.47" speed="1.32" pos="17.09" edge="193099645#1" slope="0.00"/>
        <person id="17" x="375.58" y="380.87" angle="216.62" speed="0.00" pos="0.00" edge="23195501#1" slope="0.00"/>
        <person id="13" x="64.91" y="4.47" angle="344.66" speed="1.35" pos="4.28" edge="28710621#0" slope="0.00"/>
        <person id="12" x="73.62" y="303.02" angle="105.68" speed="1.28" pos="5.13" edge="28710755#0" slope="0.00"/>
        <person id="3" x="239.36" y="662.88" angle="249.43" speed="1.33" pos="19.03" edge="28710934" slope="0.00"/>
        <person id="10" x="194.34" y="152.77" angle="39.11" speed="1.48" pos="7.97" edge="322548792#2" slope="0.00"/>
        <person id="14" x="399.49" y="222.57" angle="24.24" speed="1.37" pos="3.88" edge="429515619#0" slope="0.00"/>
        <person id="7" x="590.94" y="448.16" angle="297.01" speed="1.02" pos="11.36" edge="484335723#1" slope="0.00"/>
        <person id="15" x="405.23" y="357.15" angle="124.22" speed="1.03" pos="14.36" edge="522833732#1" slope="0.00"/>
        <person id="16" x="717.53" y="410.98" angle="295.25" speed="1.06" pos="2.04" edge="539419137#1" slope="0.00"/>
        <person id="11" x="587.93" y="535.70" angle="160.85" speed="1.19" pos="3.90" edge="655717642" slope="0.00"/>
        <person id="9" x="641.26" y="508.03" angle="203.29" speed="0.97" pos="6.31" edge="655717650#0" slope="0.00"/>
        <person id="8" x="119.24" y="426.13" angle="21.68" speed="1.07" pos="61.90" edge="996022767" slope="0.00"/>
        <person id="1" x="415.78" y="279.83" angle="14.86" speed="1.18" pos="5.00" edge="998769540#1" slope="0.00"/>
    </timestep>
    <timestep time="19.00">
        <person id="0" x="128.80" y="228.93" angle="8.42" speed="1.21" pos="23.33" edge="-191959706#1" slope="0.00"/>
        <person id="5" x="464.96" y="219.92" angle="31.99" speed="1.12" pos="13.83" edge="-28718922#1" slope="0.00"/>
        <person id="17" x="359.94" y="373.89" angle="200.88" speed="1.28" pos="44.35" edge="1149633799" slope="0.00"/>
        <person id="6" x="741.32" y="315.79" angle="212.82" speed="1.35" pos="15.80" edge="184427426#1" slope="0.00"/>
        <person id="2" x="245.82" y="439.86" angle="295.41" speed="1.18" pos="19.15" edge="191979121" slope="0.00"/>
        <person id="4" x="302.94" y="549.09" angle="213.47" speed="1.30" pos="18.38" edge="193099645#1" slope="0.00"/>
        <person id="13" x="64.53" y="5.87" angle="344.66" speed="1.45" pos="5.73" edge="28710621#0" slope="0.00"/>
        <person id="12" x="75.02" y="302.63" angle="105.68" speed="1.45" pos="6.58" edge="28710755#0" slope="0.00"/>
        <person id="3" x="238.14" y="662.42" angle="249.43" speed="1.31" pos="20.34" edge="28710934" slope="0.00"/>
        <person id="10" x="195.12" y="153.73" angle="39.11" speed="1.24" pos="9.21" edge="322548792#2" slope="0.00"/>
        <person id="14" x="399.96" y="223.62" angle="24.24" speed="1.14" pos="2.74" edge="429515619#0" slope="0.00"/>
        <person id="7" x="589.85" y="448.71" angle="297.01" speed="1.23" pos="12.59" edge="484335723#1" slope="0.00"/>
        <person id="15" x="406.12" y="356.54" angle="124.22" speed="1.08" pos="13.28" edge="522833732#1" slope="0.00"/>
        <person id="16" x="716.53" y="411.45" angle="295.25" speed="1.10" pos="3.15" edge="539419137#1" slope="0.00"/>
        <person id="11" x="588.32" y="534.60" angle="160.85" speed="1.17" pos="5.07" edge="655717642" slope="0.00"/>
        <person id="9" x="640.83" y="507.03" angle="203.29" speed="1.09" pos="7.41" edge="655717650#0" slope="0.00"/>
        <person id="8" x="119.68" y="427.24" angle="21.68" speed="1.20" pos="60.70" edge="996022767" slope="0.00"/>
        <person id="1" x="416.05" y="280.84" angle="14.86" speed="1.04" pos="3.96" edge="998769540#1" slope="0.00"/>
    </timestep>
    <timestep time="20.00">
        <person id="0" x="128.99" y="230.24" angle="8.42" speed="1.33" pos="24.66" edge="-191959706#1" slope="0.00"/>
        <person id="5" x="465.46" y="220.72" angle="31.99" speed="0.94" pos="14.77" edge="-28718922#1" slope="0.00"/>
        <person id="17" x="359.55" y="372.86" angle="200.88" speed="1.10" pos="43.25" edge="1149633799" slope="0.00"/>
        <person id="6" x="740.66" y="314.76" angle="212.82" speed="1.22" pos="17.03" edge="184427426#1" slope="0.00"/>
        <person id="2" x="244.67" y="440.41" angle="295.41" speed="1.27" pos="20.43" edge="191979121" slope="0.00"/>
        <person id="4" x="302.29" y="548.10" angle="213.47" speed="1.19" pos="19.57" edge="193099645#1" slope="0.00"/>
        <person id="13" x="64.14" y="7.27" angle="344.66" speed="1.46" pos="7.19" edge="28710621#0" slope="0.00"/>
        <person id="12" x="76.36" y="302.25" angle="105.68" speed="1.39" pos="7.97" edge="28710755#0" slope="0.00"/>
        <person id="3" x="236.77" y="661.91" angle="249.43" speed="1.46" pos="21.80" edge="28710934" slope="0.00"/>
        <person id="10" x="195.99" y="154.80" angle="39.11" speed="1.38" pos="10.59" edge="322548792#2" slope="0.00"/>
        <person id="14" x="400.50" y="224.83" angle="24.24" speed="1.33" pos="1.40" edge="429515619#0" slope="0.00"/>
        <person id="7" x="588.82" y="449.24" angle="297.01" speed="1.15" pos="13.74" edge="484335723#1" slope="0.00"/>
        <person id="15" x="407.06" y="355.90" angle="124.22" speed="1.14" pos="12.14" edge="522833732#1" slope="0.00"/>
        <person id="16" x="715.59" y="411.89" angle="295.25" speed="1.04" pos="4.19" edge="539419137#1" slope="0.00"/>
        <person id="9" x="640.40" y="506.01" angle="203.29" speed="1.10" pos="8.51" edge="655717650#0" slope="0.00"/>
        <person id="11" x="590.64" y="527.89" angle="160.81" speed="1.30" pos="1.07" edge="655717652" slope="0.00"/>
        <person id="8" x="120.15" y="428.42" angle="21.68" speed="1.27" pos="59.43" edge="996022767" slope="0.00"/>
        <person id="1" x="416.33" y="281.90" angle="14.86" speed="1.10" pos="2.86" edge="998769540#1" slope="0.00"/>
    </timestep>
    <timestep time="21.00">
        <person id="0" x="129.21" y="231.67" angle="8.42" speed="1.44" pos="26.10" edge="-191959706#1" slope="0.00"/>
        <person id="5" x="466.06" y="221.68" angle="31.99" speed="1.13" pos="15.90" edge="-28718922#1" slope="0.00"/>
        <person id="17" x="359.10" y="371.70" angle="200.88" speed="1.25" pos="42.00" edge="1149633799" slope="0.00"/>
        <person id="6" x="739.91" y="313.59" angle="212.82" speed="1.39" pos="18.41" edge="184427426#1" slope="0.00"/>
        <person id="2" x="243.46" y="440.99" angle="295.41" speed="1.34" pos="21.77" edge="191979121" slope="0.00"/>
        <person id="4" x="301.53" y="546.95" angle="213.47" speed="1.38" pos="20.95" edge="193099645#1" slope="0.00"/>
        <person id="13" x="63.81" y="8.50" angle="344.66" speed="1.27" pos="8.46" edge="28710621#0" slope="0.00"/>
        <person id="12" x="77.67" y="301.88" angle="105.68" speed="1.36" pos="9.34" edge="28710755#0" slope="0.00"/>
        <person id="3" x="235.44" y="661.41" angle="249.43" speed="1.43" pos="23.23" edge="28710934" slope="0.00"/>
        <person id="10" x="196.79" y="155.78" angle="39.11" speed="1.26" pos="11.85" edge="322548792#2" slope="0.00"/>
        <person id="14" x="400.97" y="225.86" angle="24.24" speed="1.12" pos="0.28" edge="429515619#0" slope="0.00"/>
        <person id="7" x="587.83" y="449.74" angle="297.01" speed="1.12" pos="14.86" edge="484335723#1" slope="0.00"/>
        <person id="15" x="408.00" y="355.26" angle="124.22" speed="1.14" pos="11.00" edge="522833732#1" slope="0.00"/>
        <person id="16" x="714.52" y="412.39" angle="295.25" speed="1.17" pos="5.36" edge="539419137#1" slope="0.00"/>
        <person id="9" x="639.95" y="504.97" angle="203.29" speed="1.13" pos="9.64" edge="655717650#0" slope="0.00"/>
        <person id="11" x="591.02" y="526.79" angle="160.81" speed="1.16" pos="2.22" edge="655717652" slope="0.00"/>
        <person id="8" x="120.55" y="429.44" angle="21.68" speed="1.10" pos="58.33" edge="996022767" slope="0.00"/>
        <person id="1" x="416.64" y="283.06" angle="14.86" speed="1.20" pos="1.66" edge="998769540#1" slope="0.00"/>
    </timestep>
    <timestep time="22.00">
        <person id="0" x="129.42" y="233.10" angle="8.42" speed="1.45" pos="27.55" edge="-191959706#1" slope="0.00"/>
        <person id="18" x="40.98" y="218.46" angle="99.36" speed="0.00" pos="0.00" edge="-23195751#0" slope="0.00"/>
        <person id="5" x="466.60" y="222.54" angle="31.99" speed="1.02" pos="16.92" edge="-28718922#1" slope="0.00"/>
        <person id="17" x="358.71" y="370.65" angle="200.88" speed="1.11" pos="40.89" edge="1149633799" slope="0.00"/>
        <person id="6" x="739.12" y="312.38" angle="212.82" speed="1.44" pos="19.85" edge="184427426#1" slope="0.00"/>
        <person id="2" x="242.38" y="441.50" angle="295.41" speed="1.19" pos="22.96" edge="191979121" slope="0.00"/>
        <person id="4" x="300.86" y="545.94" angle="213.47" speed="1.22" pos="22.17" edge="193099645#1" slope="0.00"/>
        <person id="14" x="404.34" y="226.63" angle="116.44" speed="1.21" pos="0.93" edge="23195328#0" slope="0.00"/>
        <person id="13" x="63.45" y="9.80" angle="344.66" speed="1.35" pos="9.81" edge="28710621#0" slope="0.00"/>
        <person id="12" x="79.04" y="301.50" angle="105.68" speed="1.42" pos="10.76" edge="28710755#0" slope="0.00"/>
        <person id="3" x="234.16" y="660.93" angle="249.43" speed="1.37" pos="24.59" edge="28710934" slope="0.00"/>
        <person id="10" x="197.74" y="156.95" angle="39.11" speed="1.51" pos="13.36" edge="322548792#2" slope="0.00"/>
        <person id="7" x="586.86" y="450.24" angle="297.01" speed="1.09" pos="15.94" edge="484335723#1" slope="0.00"/>
        <person id="15" x="409.03" y="354.57" angle="124.22" speed="1.24" pos="9.76" edge="522833732#1" slope="0.00"/>
        <person id="16" x="713.44" y="412.90" angle="295.25" speed="1.20" pos="6.56" edge="539419137#1" slope="0.00"/>
        <person id="9" x="639.52" y="503.97" angle="203.29" speed="1.09" pos="10.73" edge="655717650#0" slope="0.00"/>
        <person id="11" x="591.42" y="525.66" angle="160.81" speed="1.20" pos="3.42" edge="655717652" slope="0.00"/>
        <person id="8" x="120.94" y="430.41" angle="21.68" speed="1.05" pos="57.29" edge="996022767" slope="0.00"/>
        <person id="1" x="416.95" y="284.22" angle="14.86" speed="1.20" pos="0.46" edge="998769540#1" slope="0.00"/>
    </timestep>